# vtk DataFile Version 3.0
MMH: CalculiX output 'object.frd' file to 'vtk' format
ASCII
DATASET UNSTRUCTURED_GRID
POINTS 3232 double
 6.00000000E-001 2.10000000E-001 0.00000000E+000
 6.00000000E-001 2.08667000E-001 0.00000000E+000
 6.00000000E-001 2.07333000E-001 0.00000000E+000
 6.00000000E-001 2.06000000E-001 0.00000000E+000
 6.00000000E-001 2.04667000E-001 0.00000000E+000
 6.00000000E-001 2.03333000E-001 0.00000000E+000
 6.00000000E-001 2.02000000E-001 0.00000000E+000
 6.00000000E-001 2.00667000E-001 0.00000000E+000
 6.00000000E-001 1.99333000E-001 0.00000000E+000
 6.00000000E-001 1.98000000E-001 0.00000000E+000
 6.00000000E-001 1.96667000E-001 0.00000000E+000
 6.00000000E-001 1.95333000E-001 0.00000000E+000
 6.00000000E-001 1.94000000E-001 0.00000000E+000
 6.00000000E-001 1.92667000E-001 0.00000000E+000
 6.00000000E-001 1.91333000E-001 0.00000000E+000
 6.00000000E-001 1.90000000E-001 0.00000000E+000
 5.96490000E-001 1.90000000E-001 0.00000000E+000
 5.92980000E-001 1.90000000E-001 0.00000000E+000
 5.89470000E-001 1.90000000E-001 0.00000000E+000
 5.85960000E-001 1.90000000E-001 0.00000000E+000
 5.82449000E-001 1.90000000E-001 0.00000000E+000
 5.78939000E-001 1.90000000E-001 0.00000000E+000
 5.75429000E-001 1.90000000E-001 0.00000000E+000
 5.71919000E-001 1.90000000E-001 0.00000000E+000
 5.68409000E-001 1.90000000E-001 0.00000000E+000
 5.64899000E-001 1.90000000E-001 0.00000000E+000
 5.61389000E-001 1.90000000E-001 0.00000000E+000
 5.57879000E-001 1.90000000E-001 0.00000000E+000
 5.54369000E-001 1.90000000E-001 0.00000000E+000
 5.50859000E-001 1.90000000E-001 0.00000000E+000
 5.47348000E-001 1.90000000E-001 0.00000000E+000
 5.43838000E-001 1.90000000E-001 0.00000000E+000
 5.40328000E-001 1.90000000E-001 0.00000000E+000
 5.36818000E-001 1.90000000E-001 0.00000000E+000
 5.33308000E-001 1.90000000E-001 0.00000000E+000
 5.29798000E-001 1.90000000E-001 0.00000000E+000
 5.26288000E-001 1.90000000E-001 0.00000000E+000
 5.22778000E-001 1.90000000E-001 0.00000000E+000
 5.19268000E-001 1.90000000E-001 0.00000000E+000
 5.15758000E-001 1.90000000E-001 0.00000000E+000
 5.12247000E-001 1.90000000E-001 0.00000000E+000
 5.08737000E-001 1.90000000E-001 0.00000000E+000
 5.05227000E-001 1.90000000E-001 0.00000000E+000
 5.01717000E-001 1.90000000E-001 0.00000000E+000
 4.98207000E-001 1.90000000E-001 0.00000000E+000
 4.94697000E-001 1.90000000E-001 0.00000000E+000
 4.91187000E-001 1.90000000E-001 0.00000000E+000
 4.87677000E-001 1.90000000E-001 0.00000000E+000
 4.84167000E-001 1.90000000E-001 0.00000000E+000
 4.80657000E-001 1.90000000E-001 0.00000000E+000
 4.77146000E-001 1.90000000E-001 0.00000000E+000
 4.73636000E-001 1.90000000E-001 0.00000000E+000
 4.70126000E-001 1.90000000E-001 0.00000000E+000
 4.66616000E-001 1.90000000E-001 0.00000000E+000
 4.63106000E-001 1.90000000E-001 0.00000000E+000
 4.59596000E-001 1.90000000E-001 0.00000000E+000
 4.56086000E-001 1.90000000E-001 0.00000000E+000
 4.52576000E-001 1.90000000E-001 0.00000000E+000
 4.49066000E-001 1.90000000E-001 0.00000000E+000
 4.45556000E-001 1.90000000E-001 0.00000000E+000
 4.42045000E-001 1.90000000E-001 0.00000000E+000
 4.38535000E-001 1.90000000E-001 0.00000000E+000
 4.35025000E-001 1.90000000E-001 0.00000000E+000
 4.31515000E-001 1.90000000E-001 0.00000000E+000
 4.28005000E-001 1.90000000E-001 0.00000000E+000
 4.24495000E-001 1.90000000E-001 0.00000000E+000
 4.20985000E-001 1.90000000E-001 0.00000000E+000
 4.17475000E-001 1.90000000E-001 0.00000000E+000
 4.13965000E-001 1.90000000E-001 0.00000000E+000
 4.10455000E-001 1.90000000E-001 0.00000000E+000
 4.06944000E-001 1.90000000E-001 0.00000000E+000
 4.03434000E-001 1.90000000E-001 0.00000000E+000
 3.99924000E-001 1.90000000E-001 0.00000000E+000
 3.96414000E-001 1.90000000E-001 0.00000000E+000
 3.92904000E-001 1.90000000E-001 0.00000000E+000
 3.89394000E-001 1.90000000E-001 0.00000000E+000
 3.85884000E-001 1.90000000E-001 0.00000000E+000
 3.82374000E-001 1.90000000E-001 0.00000000E+000
 3.78864000E-001 1.90000000E-001 0.00000000E+000
 3.75353000E-001 1.90000000E-001 0.00000000E+000
 3.71843000E-001 1.90000000E-001 0.00000000E+000
 3.68333000E-001 1.90000000E-001 0.00000000E+000
 3.64823000E-001 1.90000000E-001 0.00000000E+000
 3.61313000E-001 1.90000000E-001 0.00000000E+000
 3.57803000E-001 1.90000000E-001 0.00000000E+000
 3.54293000E-001 1.90000000E-001 0.00000000E+000
 3.50783000E-001 1.90000000E-001 0.00000000E+000
 3.47273000E-001 1.90000000E-001 0.00000000E+000
 3.43763000E-001 1.90000000E-001 0.00000000E+000
 3.40252000E-001 1.90000000E-001 0.00000000E+000
 3.36742000E-001 1.90000000E-001 0.00000000E+000
 3.33232000E-001 1.90000000E-001 0.00000000E+000
 3.29722000E-001 1.90000000E-001 0.00000000E+000
 3.26212000E-001 1.90000000E-001 0.00000000E+000
 3.22702000E-001 1.90000000E-001 0.00000000E+000
 3.19192000E-001 1.90000000E-001 0.00000000E+000
 3.15682000E-001 1.90000000E-001 0.00000000E+000
 3.12172000E-001 1.90000000E-001 0.00000000E+000
 3.08661000E-001 1.90000000E-001 0.00000000E+000
 3.05151000E-001 1.90000000E-001 0.00000000E+000
 3.01641000E-001 1.90000000E-001 0.00000000E+000
 2.98131000E-001 1.90000000E-001 0.00000000E+000
 2.94621000E-001 1.90000000E-001 0.00000000E+000
 2.91111000E-001 1.90000000E-001 0.00000000E+000
 2.87601000E-001 1.90000000E-001 0.00000000E+000
 2.84091000E-001 1.90000000E-001 0.00000000E+000
 2.80581000E-001 1.90000000E-001 0.00000000E+000
 2.77071000E-001 1.90000000E-001 0.00000000E+000
 2.73560000E-001 1.90000000E-001 0.00000000E+000
 2.70050000E-001 1.90000000E-001 0.00000000E+000
 2.66540000E-001 1.90000000E-001 0.00000000E+000
 2.63030000E-001 1.90000000E-001 0.00000000E+000
 2.59520000E-001 1.90000000E-001 0.00000000E+000
 2.56010000E-001 1.90000000E-001 0.00000000E+000
 2.52500000E-001 1.90000000E-001 0.00000000E+000
 2.48990000E-001 1.90000000E-001 0.00000000E+000
 2.48990000E-001 1.91333000E-001 0.00000000E+000
 2.48990000E-001 1.92667000E-001 0.00000000E+000
 2.48990000E-001 1.94000000E-001 0.00000000E+000
 2.48990000E-001 1.95333000E-001 0.00000000E+000
 2.48990000E-001 1.96667000E-001 0.00000000E+000
 2.48990000E-001 1.98000000E-001 0.00000000E+000
 2.48990000E-001 1.99333000E-001 0.00000000E+000
 2.48990000E-001 2.00667000E-001 0.00000000E+000
 2.48990000E-001 2.02000000E-001 0.00000000E+000
 2.48990000E-001 2.03333000E-001 0.00000000E+000
 2.48990000E-001 2.04667000E-001 0.00000000E+000
 2.48990000E-001 2.06000000E-001 0.00000000E+000
 2.48990000E-001 2.07333000E-001 0.00000000E+000
 2.48990000E-001 2.08667000E-001 0.00000000E+000
 2.48990000E-001 2.10000000E-001 0.00000000E+000
 2.52500000E-001 2.10000000E-001 0.00000000E+000
 2.56010000E-001 2.10000000E-001 0.00000000E+000
 2.59520000E-001 2.10000000E-001 0.00000000E+000
 2.63030000E-001 2.10000000E-001 0.00000000E+000
 2.66540000E-001 2.10000000E-001 0.00000000E+000
 2.70050000E-001 2.10000000E-001 0.00000000E+000
 2.73560000E-001 2.10000000E-001 0.00000000E+000
 2.77071000E-001 2.10000000E-001 0.00000000E+000
 2.80581000E-001 2.10000000E-001 0.00000000E+000
 2.84091000E-001 2.10000000E-001 0.00000000E+000
 2.87601000E-001 2.10000000E-001 0.00000000E+000
 2.91111000E-001 2.10000000E-001 0.00000000E+000
 2.94621000E-001 2.10000000E-001 0.00000000E+000
 2.98131000E-001 2.10000000E-001 0.00000000E+000
 3.01641000E-001 2.10000000E-001 0.00000000E+000
 3.05151000E-001 2.10000000E-001 0.00000000E+000
 3.08661000E-001 2.10000000E-001 0.00000000E+000
 3.12172000E-001 2.10000000E-001 0.00000000E+000
 3.15682000E-001 2.10000000E-001 0.00000000E+000
 3.19192000E-001 2.10000000E-001 0.00000000E+000
 3.22702000E-001 2.10000000E-001 0.00000000E+000
 3.26212000E-001 2.10000000E-001 0.00000000E+000
 3.29722000E-001 2.10000000E-001 0.00000000E+000
 3.33232000E-001 2.10000000E-001 0.00000000E+000
 3.36742000E-001 2.10000000E-001 0.00000000E+000
 3.40252000E-001 2.10000000E-001 0.00000000E+000
 3.43763000E-001 2.10000000E-001 0.00000000E+000
 3.47273000E-001 2.10000000E-001 0.00000000E+000
 3.50783000E-001 2.10000000E-001 0.00000000E+000
 3.54293000E-001 2.10000000E-001 0.00000000E+000
 3.57803000E-001 2.10000000E-001 0.00000000E+000
 3.61313000E-001 2.10000000E-001 0.00000000E+000
 3.64823000E-001 2.10000000E-001 0.00000000E+000
 3.68333000E-001 2.10000000E-001 0.00000000E+000
 3.71843000E-001 2.10000000E-001 0.00000000E+000
 3.75353000E-001 2.10000000E-001 0.00000000E+000
 3.78864000E-001 2.10000000E-001 0.00000000E+000
 3.82374000E-001 2.10000000E-001 0.00000000E+000
 3.85884000E-001 2.10000000E-001 0.00000000E+000
 3.89394000E-001 2.10000000E-001 0.00000000E+000
 3.92904000E-001 2.10000000E-001 0.00000000E+000
 3.96414000E-001 2.10000000E-001 0.00000000E+000
 3.99924000E-001 2.10000000E-001 0.00000000E+000
 4.03434000E-001 2.10000000E-001 0.00000000E+000
 4.06944000E-001 2.10000000E-001 0.00000000E+000
 4.10455000E-001 2.10000000E-001 0.00000000E+000
 4.13965000E-001 2.10000000E-001 0.00000000E+000
 4.17475000E-001 2.10000000E-001 0.00000000E+000
 4.20985000E-001 2.10000000E-001 0.00000000E+000
 4.24495000E-001 2.10000000E-001 0.00000000E+000
 4.28005000E-001 2.10000000E-001 0.00000000E+000
 4.31515000E-001 2.10000000E-001 0.00000000E+000
 4.35025000E-001 2.10000000E-001 0.00000000E+000
 4.38535000E-001 2.10000000E-001 0.00000000E+000
 4.42045000E-001 2.10000000E-001 0.00000000E+000
 4.45556000E-001 2.10000000E-001 0.00000000E+000
 4.49066000E-001 2.10000000E-001 0.00000000E+000
 4.52576000E-001 2.10000000E-001 0.00000000E+000
 4.56086000E-001 2.10000000E-001 0.00000000E+000
 4.59596000E-001 2.10000000E-001 0.00000000E+000
 4.63106000E-001 2.10000000E-001 0.00000000E+000
 4.66616000E-001 2.10000000E-001 0.00000000E+000
 4.70126000E-001 2.10000000E-001 0.00000000E+000
 4.73636000E-001 2.10000000E-001 0.00000000E+000
 4.77146000E-001 2.10000000E-001 0.00000000E+000
 4.80657000E-001 2.10000000E-001 0.00000000E+000
 4.84167000E-001 2.10000000E-001 0.00000000E+000
 4.87677000E-001 2.10000000E-001 0.00000000E+000
 4.91187000E-001 2.10000000E-001 0.00000000E+000
 4.94697000E-001 2.10000000E-001 0.00000000E+000
[...]
POINT_DATA 3232
VECTORS DISP double
 -4.6058400E-003  1.6117600E-002  2.6770400E-005
 -4.3349400E-003  1.6145500E-002  2.6888600E-005
 -4.0634200E-003  1.6173300E-002  2.7239800E-005
 -3.7922600E-003  1.6201100E-002  2.7803200E-005
 -3.5209700E-003  1.6228900E-002  2.8549600E-005
 -3.2498100E-003  1.6256700E-002  2.9447600E-005
 -2.9785900E-003  1.6284600E-002  3.0458400E-005
 -2.7074900E-003  1.6312400E-002  3.1539800E-005
 -2.4362700E-003  1.6340300E-002  3.2647600E-005
 -2.1651700E-003  1.6368200E-002  3.3736900E-005
 -1.8939100E-003  1.6396200E-002  3.4761800E-005
 -1.6228400E-003  1.6424100E-002  3.5682100E-005
 -1.3513100E-003  1.6452200E-002  3.6456600E-005
 -1.0804100E-003  1.6480000E-002  3.7055500E-005
 -8.0803700E-004  1.6508400E-002  3.7436400E-005
 -5.3807300E-004  1.6534700E-002  3.7563200E-005
 -4.6515600E-004  1.5823500E-002  3.7640400E-005
 -3.9348300E-004  1.5107600E-002  3.7924700E-005
 -3.2130200E-004  1.4395000E-002  3.8447000E-005
 -2.4966700E-004  1.3679800E-002  3.9219500E-005
 -1.7837900E-004  1.2966500E-002  4.0260300E-005
 -1.0772300E-004  1.2251600E-002  4.1573700E-005
 -3.7928300E-005  1.1538400E-002  4.3169300E-005
  3.0895800E-005  1.0824500E-002  4.5047600E-005
  9.8376900E-005  1.0112400E-002  4.7209800E-005
  1.6441500E-004  9.4007200E-003  4.9651000E-005
  2.2861300E-004  8.6913100E-003  5.2364600E-005
  2.9082300E-004  7.9834200E-003  5.5339800E-005
  3.5067500E-004  7.2787300E-003  5.8563100E-005
  4.0796700E-004  6.5769300E-003  6.2017400E-005
  4.6237300E-004  5.8794900E-003  6.5683900E-005
  5.1365600E-004  5.1865000E-003  6.9540100E-005
  5.6153300E-004  4.4992900E-003  7.3562800E-005
  6.0576200E-004  3.8182600E-003  7.7725700E-005
  6.4610100E-004  3.1446700E-003  8.2002100E-005
  6.8232700E-004  2.4791000E-003  8.6363500E-005
  7.1424400E-004  1.8227900E-003  9.0781100E-005
  7.4165800E-004  1.1764600E-003  9.5225900E-005
  7.6443900E-004  5.4127200E-004  9.9668400E-005
  7.8241800E-004 -8.1903500E-005  1.0408000E-004
  7.9555300E-004 -6.9204200E-004  1.0843300E-004
  8.0370000E-004 -1.2880900E-003  1.1269900E-004
  8.0691000E-004 -1.8692400E-003  1.1685500E-004
  8.0507700E-004 -2.4343000E-003  1.2087400E-004
  7.9833200E-004 -2.9826800E-003  1.2473600E-004
  7.8663400E-004 -3.5131000E-003  1.2842000E-004
  7.7015600E-004 -4.0251500E-003  1.3190700E-004
  7.4896000E-004 -4.5175900E-003  1.3518200E-004
  7.2322500E-004 -4.9900600E-003  1.3823200E-004
  6.9313200E-004 -5.4415700E-003  1.4104300E-004
  6.5884900E-004 -5.8716500E-003  1.4360900E-004
  6.2066500E-004 -6.2797100E-003  1.4592000E-004
  5.7874600E-004 -6.6650800E-003  1.4797200E-004
  5.3345100E-004 -7.0276300E-003  1.4976200E-004
  4.8497000E-004 -7.3665300E-003  1.5128800E-004
  4.3367800E-004 -7.6820200E-003  1.5255100E-004
  3.7982300E-004 -7.9732400E-003  1.5354900E-004
  3.2374700E-004 -8.2406100E-003  1.5428800E-004
  2.6577200E-004 -8.4834800E-003  1.5476900E-004
  2.0618600E-004 -8.7022300E-003  1.5499800E-004
  1.4537000E-004 -8.8965900E-003  1.5497700E-004
  8.3566200E-005 -9.0667300E-003  1.5471300E-004
  2.1179500E-005 -9.2128900E-003  1.5421100E-004
 -4.1569600E-005 -9.3349700E-003  1.5347500E-004
 -1.0429600E-004 -9.4336500E-003  1.5251200E-004
 -1.6676900E-004 -9.5087000E-003  1.5132500E-004
 -2.2866400E-004 -9.5610500E-003  1.4992000E-004
 -2.8972200E-004 -9.5905100E-003  1.4830200E-004
 -3.4969200E-004 -9.5980800E-003  1.4647500E-004
 -4.0829700E-004 -9.5837700E-003  1.4444200E-004
 -4.6534300E-004 -9.5484500E-003  1.4220800E-004
 -5.2056600E-004 -9.4925200E-003  1.3977500E-004
 -5.7379900E-004 -9.4165900E-003  1.3714600E-004
 -6.2482700E-004 -9.3214500E-003  1.3432400E-004
 -6.7347400E-004 -9.2075100E-003  1.3130800E-004
 -7.1961000E-004 -9.0758300E-003  1.2810400E-004
 -7.6302600E-004 -8.9267500E-003  1.2470800E-004
 -8.0368800E-004 -8.7614300E-003  1.2112500E-004
 -8.4135100E-004 -8.5803600E-003  1.1735400E-004
 -8.7606800E-004 -8.3845200E-003  1.1339600E-004
 -9.0757900E-004 -8.1748000E-003  1.0925000E-004
 -9.3599100E-004 -7.9518000E-003  1.0491700E-004
 -9.6105900E-004 -7.7169300E-003  1.0039800E-004
 -9.8291400E-004 -7.4703700E-003  9.5692900E-005
 -1.0013500E-003 -7.2140000E-003  9.0802500E-005
 -1.0165000E-003 -6.9476600E-003  8.5726800E-005
 -1.0282100E-003 -6.6736000E-003  8.0468500E-005
 -1.0365900E-003 -6.3914600E-003  7.5028400E-005
 -1.0415400E-003 -6.1036500E-003  6.9410100E-005
 -1.0432000E-003 -5.8098100E-003  6.3616800E-005
 -1.0414200E-003 -5.5123900E-003  5.7653200E-005
 -1.0364400E-003 -5.2110700E-003  5.1526300E-005
 -1.0280300E-003 -4.9083300E-003  4.5243000E-005
 -1.0165600E-003 -4.6038500E-003  3.8815100E-005
 -1.0016600E-003 -4.3002500E-003  3.2253200E-005
 -9.8386000E-004 -3.9970100E-003  2.5576300E-005
 -9.6263900E-004 -3.6971900E-003  1.8800900E-005
 -9.3868700E-004 -3.3996700E-003  1.1955700E-005
 -9.1132900E-004 -3.1083700E-003  5.0675000E-006
 -8.8138200E-004 -2.8211700E-003 -1.8218600E-006
 -8.4806900E-004 -2.5432600E-003 -8.6693100E-006
 -8.1224900E-004 -2.2710700E-003 -1.5413400E-005
 -7.7314000E-004 -2.0115000E-003 -2.1986900E-005
 -7.3150200E-004 -1.7591200E-003 -2.8297900E-005
 -6.8673000E-004 -1.5229400E-003 -3.4243700E-005
 -6.3921200E-004 -1.2952300E-003 -3.9684700E-005
 -5.8889000E-004 -1.0876100E-003 -4.4465000E-005
 -5.3524800E-004 -8.8942800E-004 -4.8370000E-005
 -4.7951800E-004 -7.1574600E-004 -5.1164600E-005
 -4.1917200E-004 -5.5179900E-004 -5.2512400E-005
 -3.5835000E-004 -4.1785600E-004 -5.2058100E-005
 -2.9005100E-004 -2.9244200E-004 -4.9255600E-005
 -2.2541800E-004 -2.0539300E-004 -4.3579100E-005
 -1.4756400E-004 -1.2065600E-004 -3.4103800E-005
 -8.8202000E-005 -8.9519500E-005 -2.0266900E-005
  0.0000000E+000  0.0000000E+000  0.0000000E+000
  0.0000000E+000  0.0000000E+000  0.0000000E+000
  0.0000000E+000  0.0000000E+000  0.0000000E+000
  0.0000000E+000  0.0000000E+000  0.0000000E+000
  0.0000000E+000  0.0000000E+000  0.0000000E+000
  0.0000000E+000  0.0000000E+000  0.0000000E+000
  0.0000000E+000  0.0000000E+000  0.0000000E+000
  0.0000000E+000  0.0000000E+000  0.0000000E+000
  0.0000000E+000  0.0000000E+000  0.0000000E+000
  0.0000000E+000  0.0000000E+000  0.0000000E+000
  0.0000000E+000  0.0000000E+000  0.0000000E+000
  0.0000000E+000  0.0000000E+000  0.0000000E+000
  0.0000000E+000  0.0000000E+000  0.0000000E+000
  0.0000000E+000  0.0000000E+000  0.0000000E+000
  0.0000000E+000  0.0000000E+000  0.0000000E+000
  0.0000000E+000  0.0000000E+000  0.0000000E+000
  8.2708200E-005 -8.5565200E-005  2.5389000E-005
  1.4144600E-004 -1.1943600E-004  4.4173500E-005
  2.1456800E-004 -2.0589600E-004  5.8442900E-005
  2.7509300E-004 -2.9701300E-004  6.8813700E-005
  3.3705400E-004 -4.2557300E-004  7.6201500E-005
  3.9075100E-004 -5.6466500E-004  8.1131600E-005
  4.4204200E-004 -7.3247100E-004  8.4138000E-005
  4.8735100E-004 -9.1189700E-004  8.5566000E-005
  5.2869100E-004 -1.1142200E-003  8.5742400E-005
  5.6513500E-004 -1.3276700E-003  8.4890400E-005
  5.9698300E-004 -1.5594900E-003  8.3218100E-005
  6.2450100E-004 -1.8010900E-003  8.0870600E-005
  6.4727500E-004 -2.0573100E-003  7.7982300E-005
  6.6606600E-004 -2.3215200E-003  7.4648400E-005
  6.8020800E-004 -2.5970900E-003  7.0956600E-005
  6.9063700E-004 -2.8785800E-003  6.6969900E-005
  6.9663500E-004 -3.1685200E-003  6.2745900E-005
  6.9917100E-004 -3.4622300E-003  5.8327500E-005
  6.9755700E-004 -3.7616500E-003  5.3752600E-005
  6.9273400E-004 -4.0627100E-003  4.9051400E-005
  6.8407200E-004 -4.3668600E-003  4.4249400E-005
  6.7245600E-004 -4.6706000E-003  3.9368400E-005
  6.5733000E-004 -4.9748700E-003  3.4426900E-005
  6.3949300E-004 -5.2767800E-003  2.9441000E-005
  6.1848600E-004 -5.5767400E-003  2.4425000E-005
  5.9499600E-004 -5.8724900E-003  1.9391200E-005
  5.6867200E-004 -6.1639100E-003  1.4352100E-005
  5.4007100E-004 -6.4493100E-003  9.3172100E-006
  5.0896100E-004 -6.7281200E-003  4.2983000E-006
  4.7575900E-004 -6.9991200E-003 -6.9643500E-007
  4.4034500E-004 -7.2614900E-003 -5.6556200E-006
  4.0300700E-004 -7.5142300E-003 -1.0571400E-005
  3.6371300E-004 -7.7564800E-003 -1.5432800E-005
  3.2265100E-004 -7.9872900E-003 -2.0231200E-005
  2.7983600E-004 -8.2059200E-003 -2.4956300E-005
  2.3539800E-004 -8.4113300E-003 -2.9598400E-005
  1.8935900E-004 -8.6030200E-003 -3.4147400E-005
  1.4182200E-004 -8.7797900E-003 -3.8592400E-005
  9.2789900E-005 -8.9413800E-003 -4.2923600E-005
  4.2361500E-005 -9.0865100E-003 -4.7128900E-005
 -9.4982800E-006 -9.2150300E-003 -5.1198200E-005
 -6.2681400E-005 -9.3257300E-003 -5.5119000E-005
 -1.1726200E-004 -9.4184500E-003 -5.8880400E-005
 -1.7312900E-004 -9.4921700E-003 -6.2469700E-005
 -2.3038000E-004 -9.5466100E-003 -6.5875200E-005
 -2.8891700E-004 -9.5810200E-003 -6.9084600E-005
 -3.4883800E-004 -9.5949800E-003 -7.2085400E-005
 -4.1007300E-004 -9.5880200E-003 -7.4865900E-005
 -4.7270400E-004 -9.5595900E-003 -7.7413400E-005
 -5.3669600E-004 -9.5094700E-003 -7.9716600E-005
 -6.0210300E-004 -9.4370700E-003 -8.1763300E-005
 -6.6892600E-004 -9.3423000E-003 -8.3543100E-005
 -7.3718700E-004 -9.2246800E-003 -8.5044900E-005
 -8.0691300E-004 -9.0841500E-003 -8.6259200E-005
 -8.7809700E-004 -8.9204000E-003 -8.7177000E-005
 -9.5077700E-004 -8.7333600E-003 -8.7790400E-005
 -1.0249300E-003 -8.5229600E-003 -8.8092800E-005
 -1.1005800E-003 -8.2891000E-003 -8.8078600E-005
 -1.1776900E-003 -8.0319000E-003 -8.7744400E-005
 -1.2562700E-003 -7.7513300E-003 -8.7087600E-005
 -1.3362700E-003 -7.4476600E-003 -8.6108300E-005
 -1.4176700E-003 -7.1209400E-003 -8.4807600E-005
 -1.5004200E-003 -6.7715600E-003 -8.3189600E-005
 -1.5844400E-003 -6.3997100E-003 -8.1260000E-005
 -1.6697000E-003 -6.0058500E-003 -7.9027000E-005
 -1.7560700E-003 -5.5903700E-003 -7.6501000E-005
 -1.8435100E-003 -5.1537400E-003 -7.3694700E-005
 -1.9318600E-003 -4.6965600E-003 -7.0623400E-005
 -2.0210600E-003 -4.2193400E-003 -6.7304200E-005
 -2.1109400E-003 -3.7228300E-003 -6.3757000E-005
 -2.2014100E-003 -3.2076300E-003 -6.0002900E-005
 -2.2923000E-003 -2.6745700E-003 -5.6065800E-005
 -2.3834900E-003 -2.1243600E-003 -5.1970700E-005
 -2.4748200E-003 -1.5578900E-003 -4.7744400E-005
 -2.5661500E-003 -9.7596800E-004 -4.3414700E-005
 -2.6573500E-003 -3.7947700E-004 -3.9010600E-005
 -2.7482400E-003  2.3061900E-004 -3.4561400E-005
 -2.8387300E-003  8.5347900E-004 -3.0097000E-005
 -2.9286300E-003  1.4880700E-003 -2.5647500E-005
 -3.0178800E-003  2.1335900E-003 -2.1241900E-005
 -3.1063200E-003  2.7889700E-003 -1.6909800E-005
 -3.1938800E-003  3.4534100E-003 -1.2678400E-005
 -3.2804700E-003  4.1259100E-003 -8.5749300E-006
 -3.3660100E-003  4.8056600E-003 -4.6239700E-006
 -3.4504800E-003  5.4917800E-003 -8.4900200E-007
 -3.5338000E-003  6.1834100E-003  2.7291100E-006
 -3.6160300E-003  6.8799100E-003  6.0916600E-006
 -3.6970800E-003  7.5803500E-003  9.2224600E-006
 -3.7770800E-003  8.2843100E-003  1.2108400E-005
 -3.8559500E-003  8.9908700E-003  1.4738800E-005
 -3.9338900E-003  9.6998100E-003  1.7106500E-005
 -4.0108400E-003  1.0410200E-002  1.9206900E-005
 -4.0870100E-003  1.1122200E-002  2.1038900E-005
 -4.1623800E-003  1.1834800E-002  2.2604300E-005
 -4.2372300E-003  1.2548200E-002  2.3907300E-005
 -4.3114600E-003  1.3261700E-002  2.4955600E-005
 -4.3854700E-003  1.3975800E-002  2.5757000E-005
 -4.4589800E-003  1.4689600E-002  2.6322100E-005
 -4.5327300E-003  1.5403900E-002  2.6659000E-005
 -4.2612500E-003  1.5431500E-002  2.6780100E-005
 -4.1878800E-003  1.4717400E-002  2.6451200E-005
 -4.1141700E-003  1.4003400E-002  2.5898800E-005
 -4.0403300E-003  1.3289500E-002  2.5116500E-005
 -3.9660700E-003  1.2575600E-002  2.4093800E-005
 -3.8914300E-003  1.1862100E-002  2.2823100E-005
 -3.8162000E-003  1.1149100E-002  2.1297000E-005
 -3.7403900E-003  1.0437100E-002  1.9511500E-005
 -3.6638400E-003  9.7260900E-003  1.7464600E-005
 -3.5865500E-003  9.0168600E-003  1.5157600E-005
 -3.5084200E-003  8.3096400E-003  1.2594700E-005
 -3.4294400E-003  7.6052100E-003  9.7829800E-006
 -3.3495800E-003  6.9039800E-003  6.7326700E-006
 -3.2688400E-003  6.2067900E-003  3.4566000E-006
 -3.1872400E-003  5.5142500E-003 -2.9582000E-008
 -3.1048000E-003  4.8272200E-003 -3.7077500E-006
 -3.0216000E-003  4.1464500E-003 -7.5574700E-006
 -2.9376700E-003  3.4728400E-003 -1.1556200E-005
 -2.8531100E-003  2.8072500E-003 -1.5679600E-005
 -2.7680100E-003  2.1505800E-003 -1.9901700E-005
 -2.6824800E-003  1.5037900E-003 -2.4195400E-005
 -2.5966300E-003  8.6777900E-004 -2.8532500E-005
 -2.5105800E-003  2.4352600E-004 -3.2884200E-005
 -2.4244900E-003 -3.6806900E-004 -3.7221500E-005
 -2.3384600E-003 -9.6606000E-004 -4.1515100E-005
 -2.2526700E-003 -1.5495200E-003 -4.5736500E-005
 -2.1672100E-003 -2.1175600E-003 -4.9857300E-005
 -2.0822600E-003 -2.6693100E-003 -5.3850400E-005
 -1.9979300E-003 -3.2039600E-003 -5.7689600E-005
 -1.9143600E-003 -3.7206700E-003 -6.1350300E-005
 -1.8316600E-003 -4.2187400E-003 -6.4809600E-005
 -1.7499500E-003 -4.6974100E-003 -6.8046200E-005
 -1.6693300E-003 -5.1560700E-003 -7.1041100E-005
 -1.5898900E-003 -5.5940800E-003 -7.3777300E-005
 -1.5117300E-003 -6.0109000E-003 -7.6240000E-005
 -1.4348900E-003 -6.4060500E-003 -7.8416500E-005
 -1.3594600E-003 -6.7790600E-003 -8.0296700E-005
 -1.2854600E-003 -7.1296000E-003 -8.1872500E-005
 -1.2129400E-003 -7.4573000E-003 -8.3138200E-005
 -1.1419100E-003 -7.7619700E-003 -8.4090000E-005
 -1.0723900E-003 -8.0433300E-003 -8.4726500E-005
 -1.0043900E-003 -8.3013200E-003 -8.5047700E-005
 -9.3788300E-004 -8.5358000E-003 -8.5055900E-005
 -8.7288200E-004 -8.7467800E-003 -8.4754700E-005
 -8.0933000E-004 -8.9342700E-003 -8.4149500E-005
 -7.4724300E-004 -9.0983500E-003 -8.3246600E-005
 -6.8654300E-004 -9.2391800E-003 -8.2053800E-005
 -6.2723900E-004 -9.3569000E-003 -8.0580000E-005
 -5.6925700E-004 -9.4518100E-003 -7.8834500E-005
 -5.1258500E-004 -9.5241100E-003 -7.6827900E-005
 -4.5717300E-004 -9.5742000E-003 -7.4571000E-005
 -4.0298100E-004 -9.6023700E-003 -7.2075100E-005
 -3.4999600E-004 -9.6090900E-003 -6.9352000E-005
 -2.9815200E-004 -9.5947900E-003 -6.6413500E-005
 -2.4746700E-004 -9.5599100E-003 -6.3271700E-005
 -1.9787300E-004 -9.5050700E-003 -5.9938700E-005
 -1.4940100E-004 -9.4306800E-003 -5.6426500E-005
 -1.0200300E-004 -9.3375200E-003 -5.2747000E-005
 -5.5703000E-005 -9.2259700E-003 -4.8912100E-005
 -1.0505000E-005 -9.0969600E-003 -4.4933300E-005
  3.3601600E-005 -8.9508700E-003 -4.0822200E-005
  7.6538300E-005 -8.7887300E-003 -3.6589500E-005
  1.1835800E-004 -8.6109500E-003 -3.2246400E-005
  1.5890900E-004 -8.4186100E-003 -2.7803300E-005
  1.9827300E-004 -8.2122000E-003 -2.3270500E-005
  2.3624800E-004 -7.9928100E-003 -1.8658100E-005
  2.7291400E-004 -7.7610400E-003 -1.3975900E-005
  3.0805000E-004 -7.5179700E-003 -9.2336300E-006
  3.4170800E-004 -7.2642800E-003 -4.4405700E-006
  3.7367300E-004 -7.0011100E-003  3.9361400E-007
  4.0395000E-004 -6.7291200E-003  5.2597600E-006
  4.3234100E-004 -6.4496000E-003  1.0148100E-005
  4.5881200E-004 -6.1631100E-003  1.5049200E-005
  4.8316800E-004 -5.8711900E-003  1.9952500E-005
  5.0536000E-004 -5.5741600E-003  2.4847900E-005
  5.2516800E-004 -5.2739700E-003  2.9723700E-005
  5.4257100E-004 -4.9705700E-003  3.4567400E-005
  5.5729000E-004 -4.6663800E-003  3.9365100E-005
  5.6936500E-004 -4.3609400E-003  4.4101000E-005
  5.7843900E-004 -4.0571800E-003  4.8757100E-005
  5.8462800E-004 -3.7542000E-003  5.3311900E-005
  5.8751100E-004 -3.4554900E-003  5.7740800E-005
  5.8724900E-004 -3.1596300E-003  6.2013400E-005
  5.8343200E-004 -2.8707500E-003  6.6094100E-005
  5.7616200E-004 -2.5868000E-003  6.9938700E-005
  5.6519500E-004 -2.3127500E-003  7.3494200E-005
  5.5038700E-004 -2.0456100E-003  7.6694800E-005
  5.3191400E-004 -1.7915800E-003  7.9460000E-005
  5.0906400E-004 -1.5462500E-003  8.1690300E-005
  4.8288000E-004 -1.3176400E-003  8.3262700E-005
  4.5150200E-004 -1.0992000E-003  8.4025100E-005
  4.1763200E-004 -9.0167700E-004  8.3787800E-005
  3.7720100E-004 -7.1521800E-004  8.2316200E-005
  3.3605400E-004 -5.5470000E-004  7.9314100E-005
  2.8584700E-004 -4.0531900E-004  7.4417300E-005
  2.3852900E-004 -2.8808000E-004  6.7150900E-005
  1.7740400E-004 -1.8131200E-004  5.6957200E-005
  1.2704300E-004 -1.1347300E-004  4.3055400E-005
  5.4540100E-005 -5.5128800E-005  2.4765900E-005
 -3.9901500E-003  1.5459300E-002  2.7137300E-005
 -3.9166000E-003  1.4745200E-002  2.6830100E-005
 -3.8430800E-003  1.4031100E-002  2.6315700E-005
 -3.7692300E-003  1.3317000E-002  2.5588300E-005
 -3.6951500E-003  1.2603100E-002  2.4639300E-005
 -3.6206400E-003  1.1889400E-002  2.3461200E-005
 -3.5457200E-003  1.1176200E-002  2.2047700E-005
 -3.4702600E-003  1.0463800E-002  2.0394600E-005
 -3.3942400E-003  9.7525700E-003  1.8500500E-005
 -3.3176100E-003  9.0428400E-003  1.6366300E-005
 -3.2403300E-003  8.3352200E-003  1.3995700E-005
 -3.1624000E-003  7.6301600E-003  1.1395200E-005
 -3.0838100E-003  6.9283600E-003  8.5740000E-006
 -3.0046100E-003  6.2304100E-003  5.5438900E-006
 -2.9247900E-003  5.5371200E-003  2.3191300E-006
 -2.8444500E-003  4.8491900E-003 -1.0836500E-006
 -2.7636100E-003  4.1675000E-003 -4.6456700E-006
 -2.6824000E-003  3.4928500E-003 -8.3462500E-006
 -2.6008700E-003  2.8261700E-003 -1.2162900E-005
 -2.5191500E-003  2.1683500E-003 -1.6071800E-005
 -2.4373400E-003  1.5203200E-003 -2.0047700E-005
 -2.3555800E-003  8.8303600E-004 -2.4064800E-005
 -2.2739900E-003  2.5743600E-004 -2.8096300E-005
 -2.1926900E-003 -3.5553000E-004 -3.2115300E-005
 -2.1118400E-003 -9.5494300E-004 -3.6094600E-005
 -2.0315500E-003 -1.5398400E-003 -4.0007700E-005
 -1.9519800E-003 -2.1093400E-003 -4.3828300E-005
 -1.8732300E-003 -2.6625700E-003 -4.7531000E-005
 -1.7954400E-003 -3.1986800E-003 -5.1091400E-005
 -1.7187100E-003 -3.7168700E-003 -5.4486500E-005
 -1.6431600E-003 -4.2163700E-003 -5.7694900E-005
 -1.5688900E-003 -4.6964700E-003 -6.0696600E-005
 -1.4959600E-003 -5.1565000E-003 -6.3473700E-005
 -1.4244700E-003 -5.5958400E-003 -6.6010100E-005
 -1.3544500E-003 -6.0139400E-003 -6.8292000E-005
 -1.2859800E-003 -6.4103000E-003 -7.0307400E-005
 -1.2190600E-003 -6.7844700E-003 -7.2046600E-005
 -1.1537500E-003 -7.1360700E-003 -7.3501900E-005
 -1.0900200E-003 -7.4647900E-003 -7.4667800E-005
 -1.0279100E-003 -7.7703500E-003 -7.5540800E-005
 -9.6737900E-004 -8.0525500E-003 -7.6119100E-005
 -9.0840900E-004 -8.3112600E-003 -7.6402900E-005
 -8.5099000E-004 -8.5464000E-003 -7.6394200E-005
 -7.9504800E-004 -8.7579200E-003 -7.6096300E-005
 -7.4058400E-004 -8.9458700E-003 -7.5514000E-005
 -6.8749900E-004 -9.1103200E-003 -7.4653500E-005
 -6.3579000E-004 -9.2514200E-003 -7.3522100E-005
 -5.8535600E-004 -9.3693400E-003 -7.2127900E-005
 -5.3617500E-004 -9.4643300E-003 -7.0480100E-005
 -4.8817000E-004 -9.5366500E-003 -6.8588200E-005
 -4.4128500E-004 -9.5866500E-003 -6.6462900E-005
 -3.9548900E-004 -9.6146800E-003 -6.4114800E-005
 -3.5068600E-004 -9.6211800E-003 -6.1555000E-005
 -3.0689400E-004 -9.6065600E-003 -5.8794900E-005
 -2.6399300E-004 -9.5713500E-003 -5.5846000E-005
 -2.2203400E-004 -9.5160300E-003 -5.2719900E-005
 -1.8090200E-004 -9.4412300E-003 -4.9428000E-005
 -1.4065300E-004 -9.3474400E-003 -4.5981900E-005
 -1.0121300E-004 -9.2354100E-003 -4.2392900E-005
 -6.2611600E-005 -9.1056600E-003 -3.8672100E-005
 -2.4848000E-005 -8.9590300E-003 -3.4830300E-005
  1.2094200E-005 -8.7960600E-003 -3.0878600E-005
  4.8133200E-005 -8.6176800E-003 -2.6827000E-005
  8.3326200E-005 -8.4244700E-003 -2.2686000E-005
  1.1752500E-004 -8.2174100E-003 -1.8465500E-005
  1.5079900E-004 -7.9971300E-003 -1.4175100E-005
  1.8297100E-004 -7.7646900E-003 -9.8244600E-006
  2.1408200E-004 -7.5207000E-003 -5.4227000E-006
  2.4396800E-004 -7.2663600E-003 -9.7915600E-007
  2.7260100E-004 -7.0022300E-003  3.4972900E-006
  2.9986900E-004 -6.7296600E-003  7.9973600E-006
  3.2565300E-004 -6.4491300E-003  1.2512100E-005
  3.4990200E-004 -6.1621800E-003  1.7032100E-005
  3.7241500E-004 -5.8691500E-003  2.1547600E-005
  3.9318700E-004 -5.5718500E-003  2.6048700E-005
  4.1196100E-004 -5.2704300E-003  3.0524300E-005
  4.2875500E-004 -4.9669700E-003  3.4962700E-005
  4.4329000E-004 -4.6614100E-003  3.9350700E-005