# vtk DataFile Version 3.0
MMH: CalculiX output 'object.frd' file to 'vtk' format
ASCII
DATASET UNSTRUCTURED_GRID
POINTS 3232 double
 6.00000000E-001 2.10000000E-001 0.00000000E+000
 6.00000000E-001 2.08667000E-001 0.00000000E+000
 6.00000000E-001 2.07333000E-001 0.00000000E+000
 6.00000000E-001 2.06000000E-001 0.00000000E+000
 6.00000000E-001 2.04667000E-001 0.00000000E+000
 6.00000000E-001 2.03333000E-001 0.00000000E+000
 6.00000000E-001 2.02000000E-001 0.00000000E+000
 6.00000000E-001 2.00667000E-001 0.00000000E+000
 6.00000000E-001 1.99333000E-001 0.00000000E+000
 6.00000000E-001 1.98000000E-001 0.00000000E+000
 6.00000000E-001 1.96667000E-001 0.00000000E+000
 6.00000000E-001 1.95333000E-001 0.00000000E+000
 6.00000000E-001 1.94000000E-001 0.00000000E+000
 6.00000000E-001 1.92667000E-001 0.00000000E+000
 6.00000000E-001 1.91333000E-001 0.00000000E+000
 6.00000000E-001 1.90000000E-001 0.00000000E+000
 5.96490000E-001 1.90000000E-001 0.00000000E+000
 5.92980000E-001 1.90000000E-001 0.00000000E+000
 5.89470000E-001 1.90000000E-001 0.00000000E+000
 5.85960000E-001 1.90000000E-001 0.00000000E+000
 5.82449000E-001 1.90000000E-001 0.00000000E+000
 5.78939000E-001 1.90000000E-001 0.00000000E+000
 5.75429000E-001 1.90000000E-001 0.00000000E+000
 5.71919000E-001 1.90000000E-001 0.00000000E+000
 5.68409000E-001 1.90000000E-001 0.00000000E+000
 5.64899000E-001 1.90000000E-001 0.00000000E+000
 5.61389000E-001 1.90000000E-001 0.00000000E+000
 5.57879000E-001 1.90000000E-001 0.00000000E+000
 5.54369000E-001 1.90000000E-001 0.00000000E+000
 5.50859000E-001 1.90000000E-001 0.00000000E+000
 5.47348000E-001 1.90000000E-001 0.00000000E+000
 5.43838000E-001 1.90000000E-001 0.00000000E+000
 5.40328000E-001 1.90000000E-001 0.00000000E+000
 5.36818000E-001 1.90000000E-001 0.00000000E+000
 5.33308000E-001 1.90000000E-001 0.00000000E+000
 5.29798000E-001 1.90000000E-001 0.00000000E+000
 5.26288000E-001 1.90000000E-001 0.00000000E+000
 5.22778000E-001 1.90000000E-001 0.00000000E+000
 5.19268000E-001 1.90000000E-001 0.00000000E+000
 5.15758000E-001 1.90000000E-001 0.00000000E+000
 5.12247000E-001 1.90000000E-001 0.00000000E+000
 5.08737000E-001 1.90000000E-001 0.00000000E+000
 5.05227000E-001 1.90000000E-001 0.00000000E+000
 5.01717000E-001 1.90000000E-001 0.00000000E+000
 4.98207000E-001 1.90000000E-001 0.00000000E+000
 4.94697000E-001 1.90000000E-001 0.00000000E+000
 4.91187000E-001 1.90000000E-001 0.00000000E+000
 4.87677000E-001 1.90000000E-001 0.00000000E+000
 4.84167000E-001 1.90000000E-001 0.00000000E+000
 4.80657000E-001 1.90000000E-001 0.00000000E+000
 4.77146000E-001 1.90000000E-001 0.00000000E+000
 4.73636000E-001 1.90000000E-001 0.00000000E+000
 4.70126000E-001 1.90000000E-001 0.00000000E+000
 4.66616000E-001 1.90000000E-001 0.00000000E+000
 4.63106000E-001 1.90000000E-001 0.00000000E+000
 4.59596000E-001 1.90000000E-001 0.00000000E+000
 4.56086000E-001 1.90000000E-001 0.00000000E+000
 4.52576000E-001 1.90000000E-001 0.00000000E+000
 4.49066000E-001 1.90000000E-001 0.00000000E+000
 4.45556000E-001 1.90000000E-001 0.00000000E+000
 4.42045000E-001 1.90000000E-001 0.00000000E+000
 4.38535000E-001 1.90000000E-001 0.00000000E+000
 4.35025000E-001 1.90000000E-001 0.00000000E+000
 4.31515000E-001 1.90000000E-001 0.00000000E+000
 4.28005000E-001 1.90000000E-001 0.00000000E+000
 4.24495000E-001 1.90000000E-001 0.00000000E+000
 4.20985000E-001 1.90000000E-001 0.00000000E+000
 4.17475000E-001 1.90000000E-001 0.00000000E+000
 4.13965000E-001 1.90000000E-001 0.00000000E+000
 4.10455000E-001 1.90000000E-001 0.00000000E+000
 4.06944000E-001 1.90000000E-001 0.00000000E+000
 4.03434000E-001 1.90000000E-001 0.00000000E+000
 3.99924000E-001 1.90000000E-001 0.00000000E+000
 3.96414000E-001 1.90000000E-001 0.00000000E+000
 3.92904000E-001 1.90000000E-001 0.00000000E+000
 3.89394000E-001 1.90000000E-001 0.00000000E+000
 3.85884000E-001 1.90000000E-001 0.00000000E+000
 3.82374000E-001 1.90000000E-001 0.00000000E+000
 3.78864000E-001 1.90000000E-001 0.00000000E+000
 3.75353000E-001 1.90000000E-001 0.00000000E+000
 3.71843000E-001 1.90000000E-001 0.00000000E+000
 3.68333000E-001 1.90000000E-001 0.00000000E+000
 3.64823000E-001 1.90000000E-001 0.00000000E+000
 3.61313000E-001 1.90000000E-001 0.00000000E+000
 3.57803000E-001 1.90000000E-001 0.00000000E+000
 3.54293000E-001 1.90000000E-001 0.00000000E+000
 3.50783000E-001 1.90000000E-001 0.00000000E+000
 3.47273000E-001 1.90000000E-001 0.00000000E+000
 3.43763000E-001 1.90000000E-001 0.00000000E+000
 3.40252000E-001 1.90000000E-001 0.00000000E+000
 3.36742000E-001 1.90000000E-001 0.00000000E+000
 3.33232000E-001 1.90000000E-001 0.00000000E+000
 3.29722000E-001 1.90000000E-001 0.00000000E+000
 3.26212000E-001 1.90000000E-001 0.00000000E+000
 3.22702000E-001 1.90000000E-001 0.00000000E+000
 3.19192000E-001 1.90000000E-001 0.00000000E+000
 3.15682000E-001 1.90000000E-001 0.00000000E+000
 3.12172000E-001 1.90000000E-001 0.00000000E+000
 3.08661000E-001 1.90000000E-001 0.00000000E+000
 3.05151000E-001 1.90000000E-001 0.00000000E+000
 3.01641000E-001 1.90000000E-001 0.00000000E+000
 2.98131000E-001 1.90000000E-001 0.00000000E+000
 2.94621000E-001 1.90000000E-001 0.00000000E+000
 2.91111000E-001 1.90000000E-001 0.00000000E+000
 2.87601000E-001 1.90000000E-001 0.00000000E+000
 2.84091000E-001 1.90000000E-001 0.00000000E+000
 2.80581000E-001 1.90000000E-001 0.00000000E+000
 2.77071000E-001 1.90000000E-001 0.00000000E+000
 2.73560000E-001 1.90000000E-001 0.00000000E+000
 2.70050000E-001 1.90000000E-001 0.00000000E+000
 2.66540000E-001 1.90000000E-001 0.00000000E+000
 2.63030000E-001 1.90000000E-001 0.00000000E+000
 2.59520000E-001 1.90000000E-001 0.00000000E+000
 2.56010000E-001 1.90000000E-001 0.00000000E+000
 2.52500000E-001 1.90000000E-001 0.00000000E+000
 2.48990000E-001 1.90000000E-001 0.00000000E+000
 2.48990000E-001 1.91333000E-001 0.00000000E+000
 2.48990000E-001 1.92667000E-001 0.00000000E+000
 2.48990000E-001 1.94000000E-001 0.00000000E+000
 2.48990000E-001 1.95333000E-001 0.00000000E+000
 2.48990000E-001 1.96667000E-001 0.00000000E+000
 2.48990000E-001 1.98000000E-001 0.00000000E+000
 2.48990000E-001 1.99333000E-001 0.00000000E+000
 2.48990000E-001 2.00667000E-001 0.00000000E+000
 2.48990000E-001 2.02000000E-001 0.00000000E+000
 2.48990000E-001 2.03333000E-001 0.00000000E+000
 2.48990000E-001 2.04667000E-001 0.00000000E+000
 2.48990000E-001 2.06000000E-001 0.00000000E+000
 2.48990000E-001 2.07333000E-001 0.00000000E+000
 2.48990000E-001 2.08667000E-001 0.00000000E+000
 2.48990000E-001 2.10000000E-001 0.00000000E+000
 2.52500000E-001 2.10000000E-001 0.00000000E+000
 2.56010000E-001 2.10000000E-001 0.00000000E+000
 2.59520000E-001 2.10000000E-001 0.00000000E+000
 2.63030000E-001 2.10000000E-001 0.00000000E+000
 2.66540000E-001 2.10000000E-001 0.00000000E+000
 2.70050000E-001 2.10000000E-001 0.00000000E+000
 2.73560000E-001 2.10000000E-001 0.00000000E+000
 2.77071000E-001 2.10000000E-001 0.00000000E+000
 2.80581000E-001 2.10000000E-001 0.00000000E+000
 2.84091000E-001 2.10000000E-001 0.00000000E+000
 2.87601000E-001 2.10000000E-001 0.00000000E+000
 2.91111000E-001 2.10000000E-001 0.00000000E+000
 2.94621000E-001 2.10000000E-001 0.00000000E+000
 2.98131000E-001 2.10000000E-001 0.00000000E+000
 3.01641000E-001 2.10000000E-001 0.00000000E+000
 3.05151000E-001 2.10000000E-001 0.00000000E+000
 3.08661000E-001 2.10000000E-001 0.00000000E+000
 3.12172000E-001 2.10000000E-001 0.00000000E+000
 3.15682000E-001 2.10000000E-001 0.00000000E+000
 3.19192000E-001 2.10000000E-001 0.00000000E+000
 3.22702000E-001 2.10000000E-001 0.00000000E+000
 3.26212000E-001 2.10000000E-001 0.00000000E+000
 3.29722000E-001 2.10000000E-001 0.00000000E+000
 3.33232000E-001 2.10000000E-001 0.00000000E+000
 3.36742000E-001 2.10000000E-001 0.00000000E+000
 3.40252000E-001 2.10000000E-001 0.00000000E+000
 3.43763000E-001 2.10000000E-001 0.00000000E+000
 3.47273000E-001 2.10000000E-001 0.00000000E+000
 3.50783000E-001 2.10000000E-001 0.00000000E+000
 3.54293000E-001 2.10000000E-001 0.00000000E+000
 3.57803000E-001 2.10000000E-001 0.00000000E+000
 3.61313000E-001 2.10000000E-001 0.00000000E+000
 3.64823000E-001 2.10000000E-001 0.00000000E+000
 3.68333000E-001 2.10000000E-001 0.00000000E+000
 3.71843000E-001 2.10000000E-001 0.00000000E+000
 3.75353000E-001 2.10000000E-001 0.00000000E+000
 3.78864000E-001 2.10000000E-001 0.00000000E+000
 3.82374000E-001 2.10000000E-001 0.00000000E+000
 3.85884000E-001 2.10000000E-001 0.00000000E+000
 3.89394000E-001 2.10000000E-001 0.00000000E+000
 3.92904000E-001 2.10000000E-001 0.00000000E+000
 3.96414000E-001 2.10000000E-001 0.00000000E+000
 3.99924000E-001 2.10000000E-001 0.00000000E+000
 4.03434000E-001 2.10000000E-001 0.00000000E+000
 4.06944000E-001 2.10000000E-001 0.00000000E+000
 4.10455000E-001 2.10000000E-001 0.00000000E+000
 4.13965000E-001 2.10000000E-001 0.00000000E+000
 4.17475000E-001 2.10000000E-001 0.00000000E+000
 4.20985000E-001 2.10000000E-001 0.00000000E+000
 4.24495000E-001 2.10000000E-001 0.00000000E+000
 4.28005000E-001 2.10000000E-001 0.00000000E+000
 4.31515000E-001 2.10000000E-001 0.00000000E+000
 4.35025000E-001 2.10000000E-001 0.00000000E+000
 4.38535000E-001 2.10000000E-001 0.00000000E+000
 4.42045000E-001 2.10000000E-001 0.00000000E+000
 4.45556000E-001 2.10000000E-001 0.00000000E+000
 4.49066000E-001 2.10000000E-001 0.00000000E+000
 4.52576000E-001 2.10000000E-001 0.00000000E+000
 4.56086000E-001 2.10000000E-001 0.00000000E+000
 4.59596000E-001 2.10000000E-001 0.00000000E+000
 4.63106000E-001 2.10000000E-001 0.00000000E+000
 4.66616000E-001 2.10000000E-001 0.00000000E+000
 4.70126000E-001 2.10000000E-001 0.00000000E+000
 4.73636000E-001 2.10000000E-001 0.00000000E+000
 4.77146000E-001 2.10000000E-001 0.00000000E+000
 4.80657000E-001 2.10000000E-001 0.00000000E+000
 4.84167000E-001 2.10000000E-001 0.00000000E+000
 4.87677000E-001 2.10000000E-001 0.00000000E+000
 4.91187000E-001 2.10000000E-001 0.00000000E+000
 4.94697000E-001 2.10000000E-001 0.00000000E+000
[...]
POINT_DATA 3232
VECTORS DISP double
 -7.9590400E-003  3.4744900E-002 -1.4853700E-005
 -7.5875100E-003  3.4797600E-002 -1.4760100E-005
 -7.2156800E-003  3.4850400E-002 -1.4477200E-005
 -6.8440500E-003  3.4903200E-002 -1.4013600E-005
 -6.4722700E-003  3.4956100E-002 -1.3390800E-005
 -6.1005600E-003  3.5009000E-002 -1.2636400E-005
 -5.7288100E-003  3.5061800E-002 -1.1783200E-005
 -5.3570900E-003  3.5114800E-002 -1.0866900E-005
 -4.9852900E-003  3.5167700E-002 -9.9264500E-006
 -4.6135600E-003  3.5220600E-002 -9.0012400E-006
 -4.2417200E-003  3.5273600E-002 -8.1303900E-006
 -3.8699500E-003  3.5326600E-002 -7.3506500E-006
 -3.4979900E-003  3.5379700E-002 -6.6973500E-006
 -3.1262800E-003  3.5432700E-002 -6.1983800E-006
 -2.7539300E-003  3.5485900E-002 -5.8847500E-006
 -2.3825900E-003  3.5538400E-002 -5.7798200E-006
 -2.2432900E-003  3.4560000E-002 -5.6884000E-006
 -2.1046000E-003  3.3580300E-002 -5.4076500E-006
 -1.9657100E-003  3.2601600E-002 -4.9336800E-006
 -1.8271500E-003  3.1622100E-002 -4.2591700E-006
 -1.6888900E-003  3.0643200E-002 -3.3759900E-006
 -1.5511200E-003  2.9663800E-002 -2.2790900E-006
 -1.4140200E-003  2.8685000E-002 -9.6171600E-007
 -1.2777300E-003  2.7706300E-002  5.8040400E-007
 -1.1425100E-003  2.6728300E-002  2.3516800E-006
 -1.0085100E-003  2.5751000E-002  4.3544400E-006
 -8.7603700E-004  2.4775000E-002  6.5899400E-006
 -7.4528900E-004  2.3800300E-002  9.0575100E-006
 -6.1658800E-004  2.2827700E-002  1.1754800E-005
 -4.9017600E-004  2.1857400E-002  1.4677600E-005
 -3.6638200E-004  2.0890100E-002  1.7819900E-005
 -2.4549000E-004  1.9926200E-002  2.1173400E-005
 -1.2783400E-004  1.8966500E-002  2.4728500E-005
 -1.3722300E-005  1.8011600E-002  2.8473200E-005
  9.6512400E-005  1.7062300E-002  3.2394300E-005
  2.0254900E-004  1.6119300E-002  3.6476400E-005
  3.0406600E-004  1.5183600E-002  4.0702700E-005
  4.0074100E-004  1.4256000E-002  4.5055200E-005
  4.9227900E-004  1.3337300E-002  4.9514000E-005
  5.7836000E-004  1.2428600E-002  5.4058800E-005
  6.5874400E-004  1.1530900E-002  5.8667300E-005
  7.3310900E-004  1.0645200E-002  6.3317300E-005
  8.0128500E-004  9.7724500E-003  6.7985500E-005
  8.6297600E-004  8.9139200E-003  7.2647900E-005
  9.1808200E-004  8.0704100E-003  7.7280900E-005
  9.6635400E-004  7.2433300E-003  8.1859700E-005
  1.0077500E-003  6.4334100E-003  8.6361400E-005
  1.0421100E-003  5.6420600E-003  9.0761200E-005
  1.0694300E-003  4.8700500E-003  9.5037300E-005
  1.0896800E-003  4.1186300E-003  9.9166400E-005
  1.1028500E-003  3.3887300E-003  1.0312800E-004
  1.1090900E-003  2.6812600E-003  1.0690100E-004
  1.1083800E-003  1.9973800E-003  1.1046800E-004
  1.1010200E-003  1.3376000E-003  1.1381000E-004
  1.0870400E-003  7.0328200E-004  1.1691100E-004
  1.0667900E-003  9.4568400E-005  1.1975900E-004
  1.0404300E-003 -4.8712900E-004  1.2233900E-004
  1.0083300E-003 -1.0418600E-003  1.2464200E-004
  9.7077300E-004 -1.5684400E-003  1.2665700E-004
  9.2810700E-004 -2.0668600E-003  1.2837900E-004
  8.8076100E-004 -2.5364000E-003  1.2980000E-004
  8.2904600E-004 -2.9768100E-003  1.3091800E-004
  7.7350200E-004 -3.3879900E-003  1.3173000E-004
  7.1442400E-004 -3.7694200E-003  1.3223400E-004
  6.5239800E-004 -4.1215800E-003  1.3243200E-004
  5.8774700E-004 -4.4437600E-003  1.3232200E-004
  5.2102900E-004 -4.7368500E-003  1.3191100E-004
  4.5263200E-004 -5.0002200E-003  1.3119800E-004
  3.8303600E-004 -5.2348800E-003  1.3018900E-004
  3.1269400E-004 -5.4405300E-003  1.2888900E-004
  2.4200600E-004 -5.6180400E-003  1.2730300E-004
  1.7144900E-004 -5.7676600E-003  1.2543700E-004
  1.0137000E-004 -5.8899600E-003  1.2329600E-004
  3.2215200E-005 -5.9857700E-003  1.2088800E-004
 -3.5682200E-005 -6.0554100E-003  1.1821700E-004
 -1.0195900E-004 -6.1001200E-003  1.1529300E-004
 -1.6626400E-004 -6.1201800E-003  1.1211900E-004
 -2.2835500E-004 -6.1169800E-003  1.0870600E-004
 -2.8784900E-004 -6.0910000E-003  1.0505900E-004
 -3.4462300E-004 -6.0435000E-003  1.0118600E-004
 -3.9829000E-004 -5.9754000E-003  9.7093200E-005
 -4.4881500E-004 -5.8876200E-003  9.2789400E-005
 -4.9583900E-004 -5.7816100E-003  8.8282100E-005
 -5.3938500E-004 -5.6579100E-003  8.3578600E-005
 -5.7915000E-004 -5.5184800E-003  7.8688200E-005
 -6.1518500E-004 -5.3635100E-003  7.3618100E-005
 -6.4726100E-004 -5.1953400E-003  6.8378800E-005
 -6.7544700E-004 -5.0140000E-003  6.2978500E-005
 -6.9957200E-004 -4.8219600E-003  5.7428700E-005
 -7.1974900E-004 -4.6192600E-003  5.1739800E-005
 -7.3581700E-004 -4.4083800E-003  4.5923800E-005
 -7.4797300E-004 -4.1894600E-003  3.9994700E-005
 -7.5601600E-004 -3.9649200E-003  3.3966000E-005
 -7.6026600E-004 -3.7349400E-003  2.7855900E-005
 -7.6043300E-004 -3.5020100E-003  2.1680800E-005
 -7.5698700E-004 -3.2661400E-003  1.5464400E-005
 -7.4951900E-004 -3.0301500E-003  9.2280900E-006
 -7.3865500E-004 -2.7935500E-003  3.0031400E-006
 -7.2386500E-004 -2.5598200E-003 -3.1808400E-006
 -7.0589700E-004 -2.3276300E-003 -9.2822800E-006
 -6.8413800E-004 -2.1014700E-003 -1.5258800E-005
 -6.5938900E-004 -1.8787700E-003 -2.1053300E-005
 -6.3103600E-004 -1.6653900E-003 -2.6604400E-005
 -5.9980600E-004 -1.4572100E-003 -3.1831000E-005
 -5.6523600E-004 -1.2617700E-003 -3.6643700E-005
 -5.2775600E-004 -1.0730000E-003 -4.0923700E-005
 -4.8735600E-004 -9.0055300E-004 -4.4539600E-005
 -4.4372700E-004 -7.3591600E-004 -4.7313000E-005
 -3.9793200E-004 -5.9152000E-004 -4.9049700E-005
 -3.4800800E-004 -4.5541400E-004 -4.9474100E-005
 -2.9742700E-004 -3.4426700E-004 -4.8297200E-005
 -2.4056200E-004 -2.4052200E-004 -4.5075600E-005
 -1.8665500E-004 -1.6868800E-004 -3.9386400E-005
 -1.2199300E-004 -9.9036800E-005 -3.0481500E-005
 -7.2642000E-005 -7.3697700E-005 -1.7915400E-005
  0.0000000E+000  0.0000000E+000  0.0000000E+000
  0.0000000E+000  0.0000000E+000  0.0000000E+000
  0.0000000E+000  0.0000000E+000  0.0000000E+000
  0.0000000E+000  0.0000000E+000  0.0000000E+000
  0.0000000E+000  0.0000000E+000  0.0000000E+000
  0.0000000E+000  0.0000000E+000  0.0000000E+000
  0.0000000E+000  0.0000000E+000  0.0000000E+000
  0.0000000E+000  0.0000000E+000  0.0000000E+000
  0.0000000E+000  0.0000000E+000  0.0000000E+000
  0.0000000E+000  0.0000000E+000  0.0000000E+000
  0.0000000E+000  0.0000000E+000  0.0000000E+000
  0.0000000E+000  0.0000000E+000  0.0000000E+000
  0.0000000E+000  0.0000000E+000  0.0000000E+000
  0.0000000E+000  0.0000000E+000  0.0000000E+000
  0.0000000E+000  0.0000000E+000  0.0000000E+000
  0.0000000E+000  0.0000000E+000  0.0000000E+000
  6.6963400E-005 -6.7793100E-005  1.9539200E-005
  1.1528900E-004 -9.4895100E-005  3.3663200E-005
  1.7535400E-004 -1.6510500E-004  4.4029000E-005
  2.2532400E-004 -2.3997700E-004  5.1133500E-005
  2.7638900E-004 -3.4566900E-004  5.5714100E-005
  3.2072400E-004 -4.6059600E-004  5.8196600E-005
  3.6295600E-004 -5.9916100E-004  5.9012300E-005
  4.0016600E-004 -7.4768600E-004  5.8441000E-005
  4.3389700E-004 -9.1492200E-004  5.6748300E-005
  4.6333800E-004 -1.0914500E-003  5.4116200E-005
  4.8868400E-004 -1.2827200E-003  5.0715900E-005
  5.1005900E-004 -1.4818000E-003  4.6667500E-005
  5.2711500E-004 -1.6922000E-003  4.2084200E-005
  5.4036800E-004 -1.9084400E-003  3.7046900E-005
  5.4928300E-004 -2.1328900E-003  3.1631700E-005
  5.5451800E-004 -2.3609300E-003  2.5895300E-005
  5.5550800E-004 -2.5942700E-003  1.9890100E-005
  5.5294900E-004 -2.8287700E-003  1.3657800E-005
  5.4629600E-004 -3.0657600E-003  7.2358000E-006
  5.3624400E-004 -3.3014700E-003  6.5659700E-007
  5.2228400E-004 -3.5368500E-003 -6.0513500E-006
  5.0508900E-004 -3.7685500E-003 -1.2861300E-005
  4.8419800E-004 -3.9971000E-003 -1.9749400E-005
  4.6023200E-004 -4.2196600E-003 -2.6692800E-005
  4.3279900E-004 -4.4362500E-003 -3.3669900E-005
  4.0243700E-004 -4.6446000E-003 -4.0660200E-005
  3.6884000E-004 -4.8442400E-003 -4.7642300E-005
  3.3244500E-004 -5.0334100E-003 -5.4597700E-005
  2.9303700E-004 -5.2112500E-003 -6.1504800E-005
  2.5093600E-004 -5.3764100E-003 -6.8345200E-005
  2.0602100E-004 -5.5278000E-003 -7.5097600E-005
  1.5849900E-004 -5.6643100E-003 -8.1743200E-005
  1.0831900E-004 -5.7848200E-003 -8.8260700E-005
  5.5599500E-005 -5.8882500E-003 -9.4630900E-005
  3.3044200E-007 -5.9736500E-003 -1.0083300E-004
 -5.7431100E-005 -6.0398800E-003 -1.0684700E-004
 -1.1768600E-004 -6.0862100E-003 -1.1265200E-004
 -1.8040900E-004 -6.1114000E-003 -1.1822800E-004
 -2.4561600E-004 -6.1149900E-003 -1.2355700E-004
 -3.1329200E-004 -6.0956900E-003 -1.2861700E-004
 -3.8348500E-004 -6.0531900E-003 -1.3339100E-004
 -4.5617400E-004 -5.9863100E-003 -1.3785900E-004
 -5.3144300E-004 -5.8947900E-003 -1.4200400E-004
 -6.0926200E-004 -5.7776500E-003 -1.4580800E-004
 -6.8974000E-004 -5.6345800E-003 -1.4925700E-004
 -7.7284400E-004 -5.4649300E-003 -1.5233400E-004
 -8.5869100E-004 -5.2683000E-003 -1.5502800E-004
 -9.4725500E-004 -5.0443400E-003 -1.5732500E-004
 -1.0386400E-003 -4.7926400E-003 -1.5921600E-004
 -1.1328300E-003 -4.5130800E-003 -1.6069200E-004
 -1.2299000E-003 -4.2053200E-003 -1.6174700E-004
 -1.3298600E-003 -3.8694200E-003 -1.6237600E-004
 -1.4327400E-003 -3.5051700E-003 -1.6257700E-004
 -1.5385500E-003 -3.1127400E-003 -1.6235000E-004
 -1.6472800E-003 -2.6921200E-003 -1.6169900E-004
 -1.7589500E-003 -2.2435400E-003 -1.6062700E-004
 -1.8735100E-003 -1.7672500E-003 -1.5914300E-004
 -1.9909600E-003 -1.2634900E-003 -1.5725800E-004
 -2.1112200E-003 -7.3275600E-004 -1.5498300E-004
 -2.2342600E-003 -1.7535200E-004 -1.5233400E-004
 -2.3599700E-003  4.0804400E-004 -1.4932900E-004
 -2.4883000E-003  1.0170200E-003 -1.4598800E-004
 -2.6191300E-003  1.6508000E-003 -1.4233300E-004
 -2.7523300E-003  2.3087900E-003 -1.3838800E-004
 -2.8878100E-003  2.9901900E-003 -1.3417900E-004
 -3.0253900E-003  3.6942200E-003 -1.2973300E-004
 -3.1649700E-003  4.4200800E-003 -1.2507900E-004
 -3.3063300E-003  5.1668000E-003 -1.2024700E-004
 -3.4493600E-003  5.9336000E-003 -1.1526700E-004
 -3.5938500E-003  6.7193900E-003 -1.1017000E-004
 -3.7396500E-003  7.5233800E-003 -1.0498700E-004
 -3.8865600E-003  8.3444100E-003 -9.9749700E-005
 -4.0344200E-003  9.1816400E-003 -9.4488200E-005
 -4.1830400E-003  1.0034000E-002 -8.9233000E-005
 -4.3322400E-003  1.0900400E-002 -8.4013200E-005
 -4.4818900E-003  1.1780100E-002 -7.8857300E-005
 -4.6317600E-003  1.2671800E-002 -7.3791800E-005
 -4.7817800E-003  1.3574800E-002 -6.8842100E-005
 -4.9317000E-003  1.4487900E-002 -6.4032400E-005
 -5.0815000E-003  1.5410400E-002 -5.9383800E-005
 -5.2309600E-003  1.6341300E-002 -5.4916900E-005
 -5.3800500E-003  1.7279700E-002 -5.0648800E-005
 -5.5286200E-003  1.8224800E-002 -4.6595600E-005
 -5.6766400E-003  1.9175900E-002 -4.2770100E-005
 -5.8240100E-003  2.0132100E-002 -3.9183500E-005
 -5.9707000E-003  2.1092900E-002 -3.5844400E-005
 -6.1167000E-003  2.2057500E-002 -3.2758800E-005
 -6.2619400E-003  2.3025300E-002 -2.9931200E-005
 -6.4064800E-003  2.3995800E-002 -2.7362600E-005
 -6.5502900E-003  2.4968500E-002 -2.5053200E-005
 -6.6934300E-003  2.5943000E-002 -2.2999700E-005
 -6.8358900E-003  2.6918900E-002 -2.1198300E-005
 -6.9777700E-003  2.7895800E-002 -1.9642000E-005
 -7.1190900E-003  2.8873400E-002 -1.8323400E-005
 -7.2599500E-003  2.9851500E-002 -1.7232900E-005
 -7.4003500E-003  3.0830100E-002 -1.6360800E-005
 -7.5404600E-003  3.1808600E-002 -1.5696000E-005
 -7.6801800E-003  3.2787500E-002 -1.5229700E-005
 -7.8197900E-003  3.3765900E-002 -1.4949900E-005
 -7.4479100E-003  3.3819000E-002 -1.4851500E-005
 -7.3084700E-003  3.2840100E-002 -1.5123000E-005
 -7.1685700E-003  3.1861500E-002 -1.5577400E-005
 -7.0285600E-003  3.0882600E-002 -1.6225100E-005
 -6.8881200E-003  2.9904100E-002 -1.7075400E-005
 -6.7473900E-003  2.8925700E-002 -1.8138600E-005
 -6.6061800E-003  2.7947900E-002 -1.9424500E-005
 -6.4645400E-003  2.6970700E-002 -2.0942100E-005
 -6.3223700E-003  2.5994600E-002 -2.2699100E-005
 -6.1796800E-003  2.5019700E-002 -2.4701700E-005
 -6.0364300E-003  2.4046500E-002 -2.6954300E-005
 -5.8926200E-003  2.3075400E-002 -2.9459500E-005
 -5.7482600E-003  2.2107000E-002 -3.2217900E-005
 -5.6033500E-003  2.1141700E-002 -3.5227800E-005
 -5.4579800E-003  2.0180200E-002 -3.8485300E-005
 -5.3121300E-003  1.9223000E-002 -4.1984500E-005
 -5.1659300E-003  1.8270900E-002 -4.5716900E-005
 -5.0194000E-003  1.7324600E-002 -4.9672000E-005
 -4.8727000E-003  1.6385000E-002 -5.3836700E-005
 -4.7258800E-003  1.5452800E-002 -5.8196000E-005
 -4.5791200E-003  1.4528900E-002 -6.2732600E-005
 -4.4325000E-003  1.3614200E-002 -6.7427000E-005
 -4.2862100E-003  1.2709600E-002 -7.2258100E-005
 -4.1403900E-003  1.1816100E-002 -7.7202600E-005
 -3.9951900E-003  1.0934600E-002 -8.2235700E-005
 -3.8508200E-003  1.0066200E-002 -8.7331400E-005
 -3.7074200E-003  9.2118700E-003 -9.2461800E-005
 -3.5652000E-003  8.3725900E-003 -9.7598600E-005
 -3.4243000E-003  7.5493500E-003 -1.0271200E-004
 -3.2849400E-003  6.7432200E-003 -1.0777300E-004
 -3.1472700E-003  5.9551000E-003 -1.1274900E-004
 -3.0114700E-003  5.1860600E-003 -1.1761200E-004
 -2.8777100E-003  4.4369700E-003 -1.2233000E-004
 -2.7461400E-003  3.7088200E-003 -1.2687400E-004
 -2.6169100E-003  3.0024500E-003 -1.3121500E-004
 -2.4901400E-003  2.3187300E-003 -1.3532500E-004
 -2.3659800E-003  1.6584800E-003 -1.3917600E-004
 -2.2445100E-003  1.0224200E-003 -1.4274400E-004
 -2.1258500E-003  4.1131800E-004 -1.4600500E-004
 -2.0100600E-003 -1.7425500E-004 -1.4893700E-004
 -1.8972100E-003 -7.3363100E-004 -1.5152000E-004
 -1.7873400E-003 -1.2663600E-003 -1.5373800E-004
 -1.6805000E-003 -1.7719200E-003 -1.5557500E-004
 -1.5766900E-003 -2.2499700E-003 -1.5701900E-004
 -1.4759200E-003 -2.7001500E-003 -1.5806000E-004
 -1.3781900E-003 -3.1222400E-003 -1.5869000E-004
 -1.2834400E-003 -3.5160600E-003 -1.5890400E-004
 -1.1916900E-003 -3.8814700E-003 -1.5869900E-004
 -1.1028500E-003 -4.2185000E-003 -1.5807500E-004
 -1.0168900E-003 -4.5271300E-003 -1.5703500E-004
 -9.3374300E-004 -4.8075300E-003 -1.5558200E-004
 -8.5334200E-004 -5.0598300E-003 -1.5372300E-004
 -7.7563100E-004 -5.2843200E-003 -1.5146700E-004
 -7.0051400E-004 -5.4813000E-003 -1.4882300E-004
 -6.2795600E-004 -5.6511500E-003 -1.4580300E-004
 -5.5784400E-004 -5.7943700E-003 -1.4242000E-004
 -4.9015500E-004 -5.9113800E-003 -1.3868900E-004
 -4.2478600E-004 -6.0028800E-003 -1.3462600E-004
 -3.6170800E-004 -6.0693300E-003 -1.3024600E-004
 -3.0085700E-004 -6.1116300E-003 -1.2556800E-004
 -2.4218100E-004 -6.1302700E-003 -1.2061000E-004
 -1.8567700E-004 -6.1263000E-003 -1.1539000E-004
 -1.3126200E-004 -6.1002900E-003 -1.0992700E-004
 -7.8998400E-005 -6.0533800E-003 -1.0424200E-004
 -2.8781500E-005 -5.9862600E-003 -9.8354200E-005
  1.9273400E-005 -5.9000900E-003 -9.2282800E-005
  6.5270300E-005 -5.7957100E-003 -8.6048100E-005
  1.0906700E-004 -5.6743100E-003 -7.9670100E-005
  1.5074000E-004 -5.5368000E-003 -7.3168600E-005
  1.9014700E-004 -5.3844600E-003 -6.6563400E-005
  2.2731600E-004 -5.2182200E-003 -5.9874200E-005
  2.6212100E-004 -5.0394900E-003 -5.3120600E-005
  2.9454200E-004 -4.8491100E-003 -4.6322100E-005
  3.2446400E-004 -4.6487300E-003 -3.9498600E-005
  3.5183900E-004 -4.4389900E-003 -3.2669300E-005
  3.7653900E-004 -4.2218900E-003 -2.5854400E-005
  3.9853100E-004 -3.9977600E-003 -1.9074300E-005
  4.1763900E-004 -3.7689700E-003 -1.2350300E-005
  4.3388300E-004 -3.5355100E-003 -5.7045400E-006
  4.4701900E-004 -3.3001700E-003  8.3950200E-007
  4.5714200E-004 -3.0625500E-003  7.2558400E-006
  4.6394500E-004 -2.8258700E-003  1.3516600E-005
  4.6757700E-004 -2.5893100E-003  1.9589800E-005
  4.6773200E-004 -2.3565600E-003  2.5439600E-005
  4.6452900E-004 -2.1262900E-003  3.1023900E-005
  4.5779300E-004 -1.9027900E-003  3.6293700E-005
  4.4745500E-004 -1.6840000E-003  4.1190600E-005
  4.3368800E-004 -1.4750900E-003  4.5644500E-005
  4.1596400E-004 -1.2728900E-003  4.9570700E-005
  3.9517800E-004 -1.0839500E-003  5.2865900E-005
  3.6986100E-004 -9.0333800E-004  5.5404000E-005
  3.4227400E-004 -7.3973300E-004  5.7029100E-005
  3.0915600E-004 -5.8552600E-004  5.7549900E-005
  2.7531100E-004 -4.5263600E-004  5.6725600E-005
  2.3403600E-004 -3.2943700E-004  5.4261200E-005
  1.9503300E-004 -2.3270600E-004  4.9772700E-005
  1.4490200E-004 -1.4530000E-004  4.2809300E-005
  1.0346900E-004 -8.9933600E-005  3.2741500E-005
  4.4440100E-005 -4.3366000E-005  1.9025500E-005
 -7.0762800E-003  3.3871800E-002 -1.4559400E-005
 -6.9365900E-003  3.2893000E-002 -1.4808200E-005
 -6.7968700E-003  3.1914100E-002 -1.5228100E-005
 -6.6567500E-003  3.0935300E-002 -1.5827200E-005
 -6.5164800E-003  2.9956600E-002 -1.6614900E-005
 -6.3757900E-003  2.8978100E-002 -1.7600200E-005
 -6.2348300E-003  2.8000000E-002 -1.8792300E-005
 -6.0934200E-003  2.7022700E-002 -2.0199600E-005
 -5.9516400E-003  2.6046100E-002 -2.1829200E-005
 -5.8094200E-003  2.5070900E-002 -2.3687000E-005
 -5.6668000E-003  2.4097300E-002 -2.5777100E-005
 -5.5237800E-003  2.3125700E-002 -2.8102100E-005
 -5.3803600E-003  2.2156600E-002 -3.0662500E-005
 -5.2366300E-003  2.1190700E-002 -3.3457000E-005
 -5.0926000E-003  2.0228300E-002 -3.6482000E-005
 -4.9483800E-003  1.9270300E-002 -3.9732100E-005
 -4.8040100E-003  1.8317300E-002 -4.3199700E-005
 -4.6596400E-003  1.7370000E-002 -4.6874800E-005
 -4.5153400E-003  1.6429200E-002 -5.0745600E-005
 -4.3712700E-003  1.5495700E-002 -5.4798000E-005
 -4.2275400E-003  1.4570500E-002 -5.9016100E-005
 -4.0843200E-003  1.3654300E-002 -6.3381900E-005
 -3.9417800E-003  1.2748200E-002 -6.7875500E-005
 -3.8000500E-003  1.1853000E-002 -7.2475600E-005
 -3.6593600E-003  1.0969800E-002 -7.7158800E-005
 -3.5198300E-003  1.0099600E-002 -8.1901000E-005
 -3.3816900E-003  9.2432800E-003 -8.6676400E-005
 -3.2451000E-003  8.4020100E-003 -9.1458300E-005
 -3.1102500E-003  7.5767300E-003 -9.6219100E-005
 -2.9773200E-003  6.7684600E-003 -1.0093100E-004
 -2.8464700E-003  5.9782100E-003 -1.0556500E-004
 -2.7178900E-003  5.2069600E-003 -1.1009300E-004
 -2.5917200E-003  4.4556700E-003 -1.1448700E-004
 -2.4681200E-003  3.7252800E-003 -1.1871800E-004
 -2.3472000E-003  3.0166900E-003 -1.2276000E-004
 -2.2291200E-003  2.3307500E-003 -1.2658500E-004
 -2.1139400E-003  1.6683100E-003 -1.3017000E-004
 -2.0018000E-003  1.0301100E-003 -1.3348900E-004
 -1.8927200E-003  4.1688200E-004 -1.3652100E-004
 -1.7868000E-003 -1.7070900E-004 -1.3924600E-004
 -1.6840600E-003 -7.3207500E-004 -1.4164400E-004
 -1.5845100E-003 -1.2666700E-003 -1.4370000E-004
 -1.4881900E-003 -1.7740300E-003 -1.4539900E-004
 -1.3950500E-003 -2.2537500E-003 -1.4673000E-004
 -1.3051000E-003 -2.7055100E-003 -1.4768200E-004
 -1.2182500E-003 -3.1290500E-003 -1.4825000E-004
 -1.1345100E-003 -3.5241900E-003 -1.4842700E-004
 -1.0537700E-003 -3.8908200E-003 -1.4821100E-004
 -9.7596800E-004 -4.2289100E-003 -1.4760300E-004
 -9.0102000E-004 -4.5384800E-003 -1.4660400E-004
 -8.2883200E-004 -4.8196700E-003 -1.4521800E-004
 -7.5932600E-004 -5.0726300E-003 -1.4345100E-004
 -6.9236900E-004 -5.2976600E-003 -1.4131200E-004
 -6.2791400E-004 -5.4950200E-003 -1.3880900E-004
 -5.6579700E-004 -5.6651700E-003 -1.3595300E-004
 -5.0599300E-004 -5.8084900E-003 -1.3275800E-004
 -4.4833700E-004 -5.9255800E-003 -1.2923700E-004
 -3.9280600E-004 -6.0169200E-003 -1.2540500E-004
 -3.3926900E-004 -6.0832500E-003 -1.2127800E-004
 -2.8768100E-004 -6.1251700E-003 -1.1687200E-004
 -2.3797400E-004 -6.1435100E-003 -1.1220500E-004
 -1.9006900E-004 -6.1389600E-003 -1.0729500E-004
 -1.4397000E-004 -6.1125000E-003 -1.0215900E-004
 -9.9572600E-005 -6.0648700E-003 -9.6816900E-005
 -5.6941300E-005 -5.9971500E-003 -9.1287000E-005
 -1.5968300E-005 -5.9101500E-003 -8.5588400E-005
  2.3249400E-005 -5.8050800E-003 -7.9740000E-005
  6.0786800E-005 -5.6827600E-003 -7.3760700E-005
  9.6553400E-005 -5.5445100E-003 -6.7669600E-005
  1.3055500E-004 -5.3911600E-003 -6.1485200E-005
  1.6274200E-004 -5.2241900E-003 -5.5226500E-005
  1.9302900E-004 -5.0443600E-003 -4.8911800E-005
  2.2142300E-004 -4.8533300E-003 -4.2559900E-005
  2.4775100E-004 -4.6517600E-003 -3.6189300E-005
  2.7206600E-004 -4.4415000E-003 -2.9818400E-005
  2.9413600E-004 -4.2231000E-003 -2.3466100E-005
  3.1403200E-004 -3.9986200E-003 -1.7151600E-005
  3.3150600E-004 -3.7684200E-003 -1.0895000E-005