# vtk DataFile Version 3.0
MMH: CalculiX output 'object.frd' file to 'vtk' format
ASCII
DATASET UNSTRUCTURED_GRID
POINTS 3232 double
 6.00000000E-001 2.10000000E-001 0.00000000E+000
 6.00000000E-001 2.08667000E-001 0.00000000E+000
 6.00000000E-001 2.07333000E-001 0.00000000E+000
 6.00000000E-001 2.06000000E-001 0.00000000E+000
 6.00000000E-001 2.04667000E-001 0.00000000E+000
 6.00000000E-001 2.03333000E-001 0.00000000E+000
 6.00000000E-001 2.02000000E-001 0.00000000E+000
 6.00000000E-001 2.00667000E-001 0.00000000E+000
 6.00000000E-001 1.99333000E-001 0.00000000E+000
 6.00000000E-001 1.98000000E-001 0.00000000E+000
 6.00000000E-001 1.96667000E-001 0.00000000E+000
 6.00000000E-001 1.95333000E-001 0.00000000E+000
 6.00000000E-001 1.94000000E-001 0.00000000E+000
 6.00000000E-001 1.92667000E-001 0.00000000E+000
 6.00000000E-001 1.91333000E-001 0.00000000E+000
 6.00000000E-001 1.90000000E-001 0.00000000E+000
 5.96490000E-001 1.90000000E-001 0.00000000E+000
 5.92980000E-001 1.90000000E-001 0.00000000E+000
 5.89470000E-001 1.90000000E-001 0.00000000E+000
 5.85960000E-001 1.90000000E-001 0.00000000E+000
 5.82449000E-001 1.90000000E-001 0.00000000E+000
 5.78939000E-001 1.90000000E-001 0.00000000E+000
 5.75429000E-001 1.90000000E-001 0.00000000E+000
 5.71919000E-001 1.90000000E-001 0.00000000E+000
 5.68409000E-001 1.90000000E-001 0.00000000E+000
 5.64899000E-001 1.90000000E-001 0.00000000E+000
 5.61389000E-001 1.90000000E-001 0.00000000E+000
 5.57879000E-001 1.90000000E-001 0.00000000E+000
 5.54369000E-001 1.90000000E-001 0.00000000E+000
 5.50859000E-001 1.90000000E-001 0.00000000E+000
 5.47348000E-001 1.90000000E-001 0.00000000E+000
 5.43838000E-001 1.90000000E-001 0.00000000E+000
 5.40328000E-001 1.90000000E-001 0.00000000E+000
 5.36818000E-001 1.90000000E-001 0.00000000E+000
 5.33308000E-001 1.90000000E-001 0.00000000E+000
 5.29798000E-001 1.90000000E-001 0.00000000E+000
 5.26288000E-001 1.90000000E-001 0.00000000E+000
 5.22778000E-001 1.90000000E-001 0.00000000E+000
 5.19268000E-001 1.90000000E-001 0.00000000E+000
 5.15758000E-001 1.90000000E-001 0.00000000E+000
 5.12247000E-001 1.90000000E-001 0.00000000E+000
 5.08737000E-001 1.90000000E-001 0.00000000E+000
 5.05227000E-001 1.90000000E-001 0.00000000E+000
 5.01717000E-001 1.90000000E-001 0.00000000E+000
 4.98207000E-001 1.90000000E-001 0.00000000E+000
 4.94697000E-001 1.90000000E-001 0.00000000E+000
 4.91187000E-001 1.90000000E-001 0.00000000E+000
 4.87677000E-001 1.90000000E-001 0.00000000E+000
 4.84167000E-001 1.90000000E-001 0.00000000E+000
 4.80657000E-001 1.90000000E-001 0.00000000E+000
 4.77146000E-001 1.90000000E-001 0.00000000E+000
 4.73636000E-001 1.90000000E-001 0.00000000E+000
 4.70126000E-001 1.90000000E-001 0.00000000E+000
 4.66616000E-001 1.90000000E-001 0.00000000E+000
 4.63106000E-001 1.90000000E-001 0.00000000E+000
 4.59596000E-001 1.90000000E-001 0.00000000E+000
 4.56086000E-001 1.90000000E-001 0.00000000E+000
 4.52576000E-001 1.90000000E-001 0.00000000E+000
 4.49066000E-001 1.90000000E-001 0.00000000E+000
 4.45556000E-001 1.90000000E-001 0.00000000E+000
 4.42045000E-001 1.90000000E-001 0.00000000E+000
 4.38535000E-001 1.90000000E-001 0.00000000E+000
 4.35025000E-001 1.90000000E-001 0.00000000E+000
 4.31515000E-001 1.90000000E-001 0.00000000E+000
 4.28005000E-001 1.90000000E-001 0.00000000E+000
 4.24495000E-001 1.90000000E-001 0.00000000E+000
 4.20985000E-001 1.90000000E-001 0.00000000E+000
 4.17475000E-001 1.90000000E-001 0.00000000E+000
 4.13965000E-001 1.90000000E-001 0.00000000E+000
 4.10455000E-001 1.90000000E-001 0.00000000E+000
 4.06944000E-001 1.90000000E-001 0.00000000E+000
 4.03434000E-001 1.90000000E-001 0.00000000E+000
 3.99924000E-001 1.90000000E-001 0.00000000E+000
 3.96414000E-001 1.90000000E-001 0.00000000E+000
 3.92904000E-001 1.90000000E-001 0.00000000E+000
 3.89394000E-001 1.90000000E-001 0.00000000E+000
 3.85884000E-001 1.90000000E-001 0.00000000E+000
 3.82374000E-001 1.90000000E-001 0.00000000E+000
 3.78864000E-001 1.90000000E-001 0.00000000E+000
 3.75353000E-001 1.90000000E-001 0.00000000E+000
 3.71843000E-001 1.90000000E-001 0.00000000E+000
 3.68333000E-001 1.90000000E-001 0.00000000E+000
 3.64823000E-001 1.90000000E-001 0.00000000E+000
 3.61313000E-001 1.90000000E-001 0.00000000E+000
 3.57803000E-001 1.90000000E-001 0.00000000E+000
 3.54293000E-001 1.90000000E-001 0.00000000E+000
 3.50783000E-001 1.90000000E-001 0.00000000E+000
 3.47273000E-001 1.90000000E-001 0.00000000E+000
 3.43763000E-001 1.90000000E-001 0.00000000E+000
 3.40252000E-001 1.90000000E-001 0.00000000E+000
 3.36742000E-001 1.90000000E-001 0.00000000E+000
 3.33232000E-001 1.90000000E-001 0.00000000E+000
 3.29722000E-001 1.90000000E-001 0.00000000E+000
 3.26212000E-001 1.90000000E-001 0.00000000E+000
 3.22702000E-001 1.90000000E-001 0.00000000E+000
 3.19192000E-001 1.90000000E-001 0.00000000E+000
 3.15682000E-001 1.90000000E-001 0.00000000E+000
 3.12172000E-001 1.90000000E-001 0.00000000E+000
 3.08661000E-001 1.90000000E-001 0.00000000E+000
 3.05151000E-001 1.90000000E-001 0.00000000E+000
 3.01641000E-001 1.90000000E-001 0.00000000E+000
 2.98131000E-001 1.90000000E-001 0.00000000E+000
 2.94621000E-001 1.90000000E-001 0.00000000E+000
 2.91111000E-001 1.90000000E-001 0.00000000E+000
 2.87601000E-001 1.90000000E-001 0.00000000E+000
 2.84091000E-001 1.90000000E-001 0.00000000E+000
 2.80581000E-001 1.90000000E-001 0.00000000E+000
 2.77071000E-001 1.90000000E-001 0.00000000E+000
 2.73560000E-001 1.90000000E-001 0.00000000E+000
 2.70050000E-001 1.90000000E-001 0.00000000E+000
 2.66540000E-001 1.90000000E-001 0.00000000E+000
 2.63030000E-001 1.90000000E-001 0.00000000E+000
 2.59520000E-001 1.90000000E-001 0.00000000E+000
 2.56010000E-001 1.90000000E-001 0.00000000E+000
 2.52500000E-001 1.90000000E-001 0.00000000E+000
 2.48990000E-001 1.90000000E-001 0.00000000E+000
 2.48990000E-001 1.91333000E-001 0.00000000E+000
 2.48990000E-001 1.92667000E-001 0.00000000E+000
 2.48990000E-001 1.94000000E-001 0.00000000E+000
 2.48990000E-001 1.95333000E-001 0.00000000E+000
 2.48990000E-001 1.96667000E-001 0.00000000E+000
 2.48990000E-001 1.98000000E-001 0.00000000E+000
 2.48990000E-001 1.99333000E-001 0.00000000E+000
 2.48990000E-001 2.00667000E-001 0.00000000E+000
 2.48990000E-001 2.02000000E-001 0.00000000E+000
 2.48990000E-001 2.03333000E-001 0.00000000E+000
 2.48990000E-001 2.04667000E-001 0.00000000E+000
 2.48990000E-001 2.06000000E-001 0.00000000E+000
 2.48990000E-001 2.07333000E-001 0.00000000E+000
 2.48990000E-001 2.08667000E-001 0.00000000E+000
 2.48990000E-001 2.10000000E-001 0.00000000E+000
 2.52500000E-001 2.10000000E-001 0.00000000E+000
 2.56010000E-001 2.10000000E-001 0.00000000E+000
 2.59520000E-001 2.10000000E-001 0.00000000E+000
 2.63030000E-001 2.10000000E-001 0.00000000E+000
 2.66540000E-001 2.10000000E-001 0.00000000E+000
 2.70050000E-001 2.10000000E-001 0.00000000E+000
 2.73560000E-001 2.10000000E-001 0.00000000E+000
 2.77071000E-001 2.10000000E-001 0.00000000E+000
 2.80581000E-001 2.10000000E-001 0.00000000E+000
 2.84091000E-001 2.10000000E-001 0.00000000E+000
 2.87601000E-001 2.10000000E-001 0.00000000E+000
 2.91111000E-001 2.10000000E-001 0.00000000E+000
 2.94621000E-001 2.10000000E-001 0.00000000E+000
 2.98131000E-001 2.10000000E-001 0.00000000E+000
 3.01641000E-001 2.10000000E-001 0.00000000E+000
 3.05151000E-001 2.10000000E-001 0.00000000E+000
 3.08661000E-001 2.10000000E-001 0.00000000E+000
 3.12172000E-001 2.10000000E-001 0.00000000E+000
 3.15682000E-001 2.10000000E-001 0.00000000E+000
 3.19192000E-001 2.10000000E-001 0.00000000E+000
 3.22702000E-001 2.10000000E-001 0.00000000E+000
 3.26212000E-001 2.10000000E-001 0.00000000E+000
 3.29722000E-001 2.10000000E-001 0.00000000E+000
 3.33232000E-001 2.10000000E-001 0.00000000E+000
 3.36742000E-001 2.10000000E-001 0.00000000E+000
 3.40252000E-001 2.10000000E-001 0.00000000E+000
 3.43763000E-001 2.10000000E-001 0.00000000E+000
 3.47273000E-001 2.10000000E-001 0.00000000E+000
 3.50783000E-001 2.10000000E-001 0.00000000E+000
 3.54293000E-001 2.10000000E-001 0.00000000E+000
 3.57803000E-001 2.10000000E-001 0.00000000E+000
 3.61313000E-001 2.10000000E-001 0.00000000E+000
 3.64823000E-001 2.10000000E-001 0.00000000E+000
 3.68333000E-001 2.10000000E-001 0.00000000E+000
 3.71843000E-001 2.10000000E-001 0.00000000E+000
 3.75353000E-001 2.10000000E-001 0.00000000E+000
 3.78864000E-001 2.10000000E-001 0.00000000E+000
 3.82374000E-001 2.10000000E-001 0.00000000E+000
 3.85884000E-001 2.10000000E-001 0.00000000E+000
 3.89394000E-001 2.10000000E-001 0.00000000E+000
 3.92904000E-001 2.10000000E-001 0.00000000E+000
 3.96414000E-001 2.10000000E-001 0.00000000E+000
 3.99924000E-001 2.10000000E-001 0.00000000E+000
 4.03434000E-001 2.10000000E-001 0.00000000E+000
 4.06944000E-001 2.10000000E-001 0.00000000E+000
 4.10455000E-001 2.10000000E-001 0.00000000E+000
 4.13965000E-001 2.10000000E-001 0.00000000E+000
 4.17475000E-001 2.10000000E-001 0.00000000E+000
 4.20985000E-001 2.10000000E-001 0.00000000E+000
 4.24495000E-001 2.10000000E-001 0.00000000E+000
 4.28005000E-001 2.10000000E-001 0.00000000E+000
 4.31515000E-001 2.10000000E-001 0.00000000E+000
 4.35025000E-001 2.10000000E-001 0.00000000E+000
 4.38535000E-001 2.10000000E-001 0.00000000E+000
 4.42045000E-001 2.10000000E-001 0.00000000E+000
 4.45556000E-001 2.10000000E-001 0.00000000E+000
 4.49066000E-001 2.10000000E-001 0.00000000E+000
 4.52576000E-001 2.10000000E-001 0.00000000E+000
 4.56086000E-001 2.10000000E-001 0.00000000E+000
 4.59596000E-001 2.10000000E-001 0.00000000E+000
 4.63106000E-001 2.10000000E-001 0.00000000E+000
 4.66616000E-001 2.10000000E-001 0.00000000E+000
 4.70126000E-001 2.10000000E-001 0.00000000E+000
 4.73636000E-001 2.10000000E-001 0.00000000E+000
 4.77146000E-001 2.10000000E-001 0.00000000E+000
 4.80657000E-001 2.10000000E-001 0.00000000E+000
 4.84167000E-001 2.10000000E-001 0.00000000E+000
 4.87677000E-001 2.10000000E-001 0.00000000E+000
 4.91187000E-001 2.10000000E-001 0.00000000E+000
 4.94697000E-001 2.10000000E-001 0.00000000E+000
[...]
POINT_DATA 3232
VECTORS DISP double
 -2.3119700E-003 -3.2435200E-002 -9.2161900E-006
 -2.6806400E-003 -3.2383500E-002 -9.3263200E-006
 -3.0503200E-003 -3.2331100E-002 -9.6548000E-006
 -3.4193700E-003 -3.2278900E-002 -1.0177400E-005
 -3.7886600E-003 -3.2226600E-002 -1.0862200E-005
 -4.1577600E-003 -3.2174400E-002 -1.1680000E-005
 -4.5269300E-003 -3.2122200E-002 -1.2594100E-005
 -4.8959900E-003 -3.2070000E-002 -1.3565800E-005
 -5.2651300E-003 -3.2017800E-002 -1.4554000E-005
 -5.6341800E-003 -3.1965700E-002 -1.5517500E-005
 -6.0032700E-003 -3.1913600E-002 -1.6415100E-005
 -6.3723200E-003 -3.1861500E-002 -1.7209600E-005
 -6.7414500E-003 -3.1809400E-002 -1.7866000E-005
 -7.1104100E-003 -3.1757400E-002 -1.8355900E-005
 -7.4796300E-003 -3.1705300E-002 -1.8655700E-005
 -7.8484500E-003 -3.1653400E-002 -1.8755100E-005
 -7.7112400E-003 -3.0681500E-002 -1.8857200E-005
 -7.5735500E-003 -2.9710000E-002 -1.9156700E-005
 -7.4358400E-003 -2.8738200E-002 -1.9657500E-005
 -7.2976800E-003 -2.7766600E-002 -2.0372100E-005
 -7.1592500E-003 -2.6795200E-002 -2.1310400E-005
 -7.0203000E-003 -2.5824000E-002 -2.2483900E-005
 -6.8808900E-003 -2.4853500E-002 -2.3903000E-005
 -6.7408500E-003 -2.3883600E-002 -2.5577300E-005
 -6.6002000E-003 -2.2915000E-002 -2.7514600E-005
 -6.4588100E-003 -2.1947700E-002 -2.9721800E-005
 -6.3167100E-003 -2.0982300E-002 -3.2202600E-005
 -6.1738100E-003 -2.0019200E-002 -3.4959900E-005
 -6.0301500E-003 -1.9059100E-002 -3.7993100E-005
 -5.8856700E-003 -1.8102400E-002 -4.1300400E-005
 -5.7404500E-003 -1.7149700E-002 -4.4876600E-005
 -5.5944700E-003 -1.6201900E-002 -4.8714600E-005
 -5.4478000E-003 -1.5259500E-002 -5.2804800E-005
 -5.3005200E-003 -1.4323600E-002 -5.7134600E-005
 -5.1526600E-003 -1.3394700E-002 -6.1689700E-005
 -5.0043900E-003 -1.2473900E-002 -6.6452500E-005
 -4.8557500E-003 -1.1562000E-002 -7.1404200E-005
 -4.7069300E-003 -1.0660100E-002 -7.6522300E-005
 -4.5580000E-003 -9.7690300E-003 -8.1783600E-005
 -4.4091900E-003 -8.8899100E-003 -8.7161900E-005
 -4.2605700E-003 -8.0236400E-003 -9.2629800E-005
 -4.1124000E-003 -7.1713800E-003 -9.8158400E-005
 -3.9647900E-003 -6.3341500E-003 -1.0371700E-004
 -3.8179500E-003 -5.5129400E-003 -1.0927400E-004
 -3.6720500E-003 -4.7089300E-003 -1.1479700E-004
 -3.5272700E-003 -3.9229900E-003 -1.2025300E-004
 -3.3838200E-003 -3.1563400E-003 -1.2560800E-004
 -3.2418300E-003 -2.4097900E-003 -1.3083000E-004
 -3.1015200E-003 -1.6844900E-003 -1.3588600E-004
 -2.9630100E-003 -9.8124700E-004 -1.4074300E-004
 -2.8265000E-003 -3.0105800E-004 -1.4536900E-004
 -2.6921000E-003  3.5524000E-004 -1.4973500E-004
 -2.5599600E-003  9.8686600E-004 -1.5381200E-004
 -2.4302100E-003  1.5929700E-003 -1.5757200E-004
 -2.3029400E-003  2.1729800E-003 -1.6099200E-004
 -2.1782600E-003  2.7260900E-003 -1.6404700E-004
 -2.0562200E-003  3.2519000E-003 -1.6671900E-004
 -1.9369200E-003  3.7497200E-003 -1.6898800E-004
 -1.8203700E-003  4.2192600E-003 -1.7084000E-004
 -1.7066500E-003  4.6600400E-003 -1.7226200E-004
 -1.5957200E-003  5.0718300E-003 -1.7324300E-004
 -1.4876400E-003  5.4543900E-003 -1.7377800E-004
 -1.3823800E-003  5.8075400E-003 -1.7386000E-004
 -1.2799200E-003  6.1312800E-003 -1.7348900E-004
 -1.1802500E-003  6.4254900E-003 -1.7266400E-004
 -1.0833200E-003  6.6904100E-003 -1.7138900E-004
 -9.8910800E-004  6.9260000E-003 -1.6966900E-004
 -8.9753700E-004  7.1326700E-003 -1.6751100E-004
 -8.0861100E-004  7.3105600E-003 -1.6492500E-004
 -7.2221800E-004  7.4601100E-003 -1.6192100E-004
 -6.3838200E-004  7.5817500E-003 -1.5851300E-004
 -5.5698000E-004  7.6758900E-003 -1.5471500E-004
 -4.7804900E-004  7.7432600E-003 -1.5054200E-004
 -4.0147400E-004  7.7842100E-003 -1.4601200E-004
 -3.2729800E-004  7.7997700E-003 -1.4114100E-004
 -2.5543300E-004  7.7902500E-003 -1.3594800E-004
 -1.8592100E-004  7.7569100E-003 -1.3045300E-004
 -1.1871100E-004  7.7001000E-003 -1.2467500E-004
 -5.3847000E-005  7.6211800E-003 -1.1863500E-004
  8.6879500E-006  7.5206800E-003 -1.1235200E-004
  6.8832400E-005  7.3999100E-003 -1.0584800E-004
  1.2658600E-004  7.2596400E-003 -9.9143900E-005
  1.8184900E-004  7.1011300E-003 -9.2259600E-005
  2.3462700E-004  6.9253500E-003 -8.5216700E-005
  2.8475400E-004  6.7335200E-003 -7.8035100E-005
  3.3227600E-004  6.5267600E-003 -7.0736800E-005
  3.7692700E-004  6.3063400E-003 -6.3340800E-005
  4.1883100E-004  6.0733700E-003 -5.5869200E-005
  4.5759500E-004  5.8293700E-003 -4.8341000E-005
  4.9344600E-004  5.5751700E-003 -4.0778200E-005
  5.2585800E-004  5.3127700E-003 -3.3200300E-005
  5.5516500E-004  5.0425800E-003 -2.5629200E-005
  5.8072000E-004  4.7671300E-003 -1.8086400E-005
  6.0296000E-004  4.4863300E-003 -1.0594500E-005
  6.2113700E-004  4.2033200E-003 -3.1777900E-006
  6.3577500E-004  3.9174600E-003  4.1384200E-006
  6.4605800E-004  3.6324700E-003  1.1325500E-005
  6.5257900E-004  3.3472200E-003  1.8352300E-005
  6.5448300E-004  3.0659300E-003  2.5183600E-005
  6.5241600E-004  2.7870300E-003  3.1777600E-005
  6.4551400E-004  2.5152000E-003  3.8088100E-005
  6.3445300E-004  2.2483900E-003  4.4055800E-005
  6.1841800E-004  1.9918900E-003  4.9616800E-005
  5.9804200E-004  1.7428500E-003  5.4684200E-005
  5.7268600E-004  1.5076200E-003  5.9165000E-005
  5.4276100E-004  1.2819900E-003  6.2929200E-005
  5.0809700E-004  1.0740400E-003  6.5837600E-005
  4.6845700E-004  8.7727100E-004  6.7691800E-005
  4.2478800E-004  7.0271100E-004  6.8280100E-005
  3.7526400E-004  5.4001900E-004  6.7292900E-005
  3.2331300E-004  4.0518900E-004  6.4403700E-005
  2.6350700E-004  2.8129800E-004  5.9108100E-005
  2.0501500E-004  1.9358800E-004  5.0908400E-005
  1.3476100E-004  1.1135300E-004  3.8940300E-005
  7.8237800E-005  7.9622900E-005  2.2620900E-005
  0.0000000E+000  0.0000000E+000  0.0000000E+000
  0.0000000E+000  0.0000000E+000  0.0000000E+000
  0.0000000E+000  0.0000000E+000  0.0000000E+000
  0.0000000E+000  0.0000000E+000  0.0000000E+000
  0.0000000E+000  0.0000000E+000  0.0000000E+000
  0.0000000E+000  0.0000000E+000  0.0000000E+000
  0.0000000E+000  0.0000000E+000  0.0000000E+000
  0.0000000E+000  0.0000000E+000  0.0000000E+000
  0.0000000E+000  0.0000000E+000  0.0000000E+000
  0.0000000E+000  0.0000000E+000  0.0000000E+000
  0.0000000E+000  0.0000000E+000  0.0000000E+000
  0.0000000E+000  0.0000000E+000  0.0000000E+000
  0.0000000E+000  0.0000000E+000  0.0000000E+000
  0.0000000E+000  0.0000000E+000  0.0000000E+000
  0.0000000E+000  0.0000000E+000  0.0000000E+000
  0.0000000E+000  0.0000000E+000  0.0000000E+000
 -8.5129300E-005  8.5825800E-005 -2.1595000E-005
 -1.4302200E-004  1.1510400E-004 -3.6921100E-005
 -2.1906200E-004  1.9618900E-004 -4.7946600E-005
 -2.8262900E-004  2.7986200E-004 -5.5195600E-005
 -3.4985100E-004  4.0090400E-004 -5.9546000E-005
 -4.0993500E-004  5.3066800E-004 -6.1496300E-005
 -4.6950400E-004  6.8977000E-004 -6.1567600E-005
 -5.2452000E-004  8.5874100E-004 -6.0100100E-005
 -5.7731300E-004  1.0516500E-003 -5.7418000E-005
 -6.2664600E-004  1.2540100E-003 -5.3749300E-005
 -6.7291900E-004  1.4758600E-003 -4.9304200E-005
 -7.1613400E-004  1.7060000E-003 -4.4236600E-005
 -7.5583200E-004  1.9516100E-003 -3.8686300E-005
 -7.9253100E-004  2.2039200E-003 -3.2757800E-005
 -8.2542400E-004  2.4679100E-003 -2.6546300E-005
 -8.5519700E-004  2.7367600E-003 -2.0123300E-005
 -8.8095600E-004  3.0136400E-003 -1.3555200E-005
 -9.0338200E-004  3.2933200E-003 -6.8912100E-006
 -9.2163200E-004  3.5775600E-003 -1.7924500E-007
 -9.3629300E-004  3.8623000E-003  6.5466000E-006
 -9.4665100E-004  4.1483200E-003  1.3250800E-005
 -9.5315900E-004  4.4323500E-003  1.9909100E-005
 -9.5526900E-004  4.7145700E-003  2.6495100E-005
 -9.5329700E-004  4.9921200E-003  3.2990300E-005
 -9.4686300E-004  5.2649600E-003  3.9375100E-005
 -9.3617600E-004  5.5303500E-003  4.5634600E-005
 -9.2099300E-004  5.7882500E-003  5.1753900E-005
 -9.0147200E-004  6.0359100E-003  5.7720700E-005
 -8.7746500E-004  6.2733500E-003  6.3523800E-005
 -8.4913300E-004  6.4978500E-003  6.9151700E-005
 -8.1638200E-004  6.7094300E-003  7.4596200E-005
 -7.7942800E-004  6.9055400E-003  7.9846900E-005
 -7.3819800E-004  7.0860200E-003  8.4896600E-005
 -6.9298700E-004  7.2487000E-003  8.9736600E-005
 -6.4375000E-004  7.3930600E-003  9.4359900E-005
 -5.9084900E-004  7.5174900E-003  9.8759100E-005
 -5.3429300E-004  7.6210500E-003  1.0292700E-004
 -4.7448000E-004  7.7026800E-003  1.0685700E-004
 -4.1151300E-004  7.7610900E-003  1.1054200E-004
 -3.4578900E-004  7.7957000E-003  1.1397600E-004
 -2.7753300E-004  7.8050500E-003  1.1715100E-004
 -2.0711900E-004  7.7887800E-003  1.2006300E-004
 -1.3490000E-004  7.7456100E-003  1.2270300E-004
 -6.1229200E-005  7.6751000E-003  1.2506700E-004
  1.3441900E-005  7.5764100E-003  1.2714700E-004
  8.8747900E-005  7.4488600E-003  1.2893800E-004
  1.6419500E-004  7.2921600E-003  1.3043500E-004
  2.3936500E-004  7.1053900E-003  1.3163100E-004
  3.1377900E-004  6.8887800E-003  1.3252200E-004
  3.8693500E-004  6.6412600E-003  1.3310300E-004
  4.5841200E-004  6.3634400E-003  1.3337100E-004
  5.2762700E-004  6.0543600E-003  1.3332200E-004
  5.9421800E-004  5.7147000E-003  1.3295500E-004
  6.5756800E-004  5.3439300E-003  1.3226800E-004
  7.1734300E-004  4.9425500E-003  1.3126200E-004
  7.7296500E-004  4.5106300E-003  1.2993700E-004
  8.2408500E-004  4.0484000E-003  1.2829800E-004
  8.7023100E-004  3.5565700E-003  1.2634900E-004
  9.1101500E-004  3.0351100E-003  1.2409500E-004
  9.4611400E-004  2.4852400E-003  1.2154600E-004
  9.7510400E-004  1.9068800E-003  1.1871100E-004
  9.9781400E-004  1.3014800E-003  1.1560200E-004
  1.0138300E-003  6.6915500E-004  1.1223300E-004
  1.0230900E-003  1.1330500E-005  1.0862000E-004
  1.0252700E-003 -6.7148500E-004  1.0478000E-004
  1.0203500E-003 -1.3780900E-003  1.0073300E-004
  1.0081500E-003 -2.1075200E-003  9.6498200E-005
  9.8865800E-004 -2.8588300E-003  9.2098400E-005
  9.6187200E-004 -3.6307000E-003  8.7557300E-005
  9.2778700E-004 -4.4223300E-003  8.2898000E-005
  8.8654400E-004 -5.2322200E-003  7.8146500E-005
  8.3816900E-004 -6.0596100E-003  7.3327400E-005
  7.8291000E-004 -6.9030200E-003  6.8467200E-005
  7.2085200E-004 -7.7615800E-003  6.3591200E-005
  6.5229800E-004 -8.6339600E-003  5.8725200E-005
  5.7741400E-004 -9.5192100E-003  5.3894600E-005
  4.9652900E-004 -1.0416100E-002  4.9123600E-005
  4.0988600E-004 -1.1323700E-002  4.4436300E-005
  3.1781900E-004 -1.2240900E-002  3.9855100E-005
  2.2062900E-004 -1.3166700E-002  3.5401700E-005
  1.1865600E-004 -1.4100300E-002  3.1096100E-005
  1.2232400E-005 -1.5040600E-002  2.6956700E-005
 -9.8301200E-005 -1.5986900E-002  2.3000600E-005
 -2.1260000E-004 -1.6938300E-002  1.9242500E-005
 -3.3033400E-004 -1.7894200E-002  1.5695800E-005
 -4.5115400E-004 -1.8853800E-002  1.2371400E-005
 -5.7475900E-004 -1.9816600E-002  9.2786900E-006
 -7.0079800E-004 -2.0781800E-002  6.4244100E-006
 -8.2901600E-004 -2.1749300E-002  3.8136600E-006
 -9.5906300E-004 -2.2718100E-002  1.4493000E-006
 -1.0907400E-003 -2.3688400E-002 -6.6768700E-007
 -1.2237100E-003 -2.4659300E-002 -2.5383900E-006
 -1.3578300E-003 -2.5631100E-002 -4.1652500E-006
 -1.4928000E-003 -2.6602900E-002 -5.5529900E-006
 -1.6284800E-003 -2.7575300E-002 -6.7063200E-006
 -1.7646800E-003 -2.8547200E-002 -7.6328600E-006
 -1.9012000E-003 -2.9519700E-002 -8.3383400E-006
 -2.0380400E-003 -3.0491300E-002 -8.8322900E-006
 -2.1747300E-003 -3.1464000E-002 -9.1227200E-006
 -2.5441400E-003 -3.1411300E-002 -9.2350500E-006
 -2.4070600E-003 -3.0439400E-002 -8.9509800E-006
 -2.2703500E-003 -2.9467100E-002 -8.4671900E-006
 -2.1337300E-003 -2.8495000E-002 -7.7780200E-006
 -1.9974400E-003 -2.7522600E-002 -6.8738200E-006
 -1.8616300E-003 -2.6550500E-002 -5.7487200E-006
 -1.7263800E-003 -2.5578300E-002 -4.3956300E-006
 -1.5919800E-003 -2.4606700E-002 -2.8096800E-006
 -1.4584900E-003 -2.3635500E-002 -9.8651100E-007
 -1.3262600E-003 -2.2665300E-002  1.0763000E-006
 -1.1953900E-003 -2.1696200E-002  3.3797300E-006
 -1.0662700E-003 -2.0728800E-002  5.9227800E-006
 -9.3903200E-004 -1.9763400E-002  8.7025900E-006
 -8.1407300E-004 -1.8800700E-002  1.1714300E-005
 -6.9159800E-004 -1.7841000E-002  1.4950900E-005
 -5.7198500E-004 -1.6885200E-002  1.8403700E-005
 -4.5548800E-004 -1.5933800E-002  2.2061600E-005
 -3.4247600E-004 -1.4987700E-002  2.5911900E-005
 -2.3323500E-004 -1.4047500E-002  2.9940000E-005
 -1.2811800E-004 -1.3114300E-002  3.4129400E-005
 -2.7426000E-005 -1.2188700E-002  3.8462100E-005
  6.8506000E-005 -1.1271900E-002  4.2918500E-005
  1.5938800E-004 -1.0364800E-002  4.7477700E-005
  2.4490600E-004 -9.4684000E-003  5.2117800E-005
  3.2480200E-004 -8.5837800E-003  5.6815400E-005
  3.9879000E-004 -7.7120000E-003  6.1546900E-005
  4.6664900E-004 -6.8542700E-003  6.6287700E-005
  5.2815900E-004 -6.0115600E-003  7.1012900E-005
  5.8312900E-004 -5.1851800E-003  7.5697600E-005
  6.3142900E-004 -4.3760900E-003  8.0316500E-005
  6.7289700E-004 -3.5856000E-003  8.4845200E-005
  7.0751500E-004 -2.8146900E-003  8.9259300E-005
  7.3515300E-004 -2.0645700E-003  9.3535700E-005
  7.5590700E-004 -1.3362800E-003  9.7651500E-005
  7.6970400E-004 -6.3083500E-004  1.0158600E-004
  7.7673000E-004  5.0642100E-005  1.0531800E-004
  7.7700500E-004  7.0737400E-004  1.0883100E-004
  7.7076600E-004  1.3382000E-003  1.1210600E-004
  7.5816700E-004  1.9425700E-003  1.1512900E-004
  7.3944900E-004  2.5193700E-003  1.1788700E-004
  7.1492800E-004  3.0682300E-003  1.2036800E-004
  6.8482300E-004  3.5881700E-003  1.2256300E-004
  6.4960000E-004  4.0789400E-003  1.2446200E-004
  6.0946900E-004  4.5398300E-003  1.2606200E-004
  5.6499300E-004  4.9705800E-003  1.2735600E-004
  5.1640900E-004  5.3708700E-003  1.2834200E-004
  4.6430500E-004  5.7403700E-003  1.2901900E-004
  4.0899100E-004  6.0791800E-003  1.2938600E-004
  3.5101000E-004  6.3869600E-003  1.2944500E-004
  2.9077400E-004  6.6641200E-003  1.2919800E-004
  2.2873000E-004  6.9104000E-003  1.2864700E-004
  1.6539700E-004  7.1264300E-003  1.2779500E-004
  1.0111400E-004  7.3121400E-003  1.2664900E-004
  3.6471200E-005  7.4682500E-003  1.2521100E-004
 -2.8274900E-005  7.5949700E-003  1.2348800E-004
 -9.2525300E-005  7.6930200E-003  1.2148400E-004
 -1.5606200E-004  7.7629500E-003  1.1920500E-004
 -2.1834200E-004  7.8054200E-003  1.1665800E-004
 -2.7914300E-004  7.8212900E-003  1.1384800E-004
 -3.3803200E-004  7.8112400E-003  1.1078100E-004
 -3.9474900E-004  7.7763100E-003  1.0746300E-004
 -4.4900300E-004  7.7172900E-003  1.0390000E-004
 -5.0049400E-004  7.6352700E-003  1.0009900E-004
 -5.4906300E-004  7.5312700E-003  9.6066100E-005
 -5.9440300E-004  7.4063000E-003  9.1807600E-005
 -6.3644400E-004  7.2616900E-003  8.7330200E-005
 -6.7491900E-004  7.0982600E-003  8.2640900E-005
 -7.0979800E-004  6.9177100E-003  7.7746600E-005
 -7.4090300E-004  6.7206600E-003  7.2655200E-005
 -7.6819600E-004  6.5091000E-003  6.7374200E-005
 -7.9162000E-004  6.2835000E-003  6.1912700E-005
 -8.1109700E-004  6.0461000E-003  5.6279500E-005
 -8.2670100E-004  5.7972400E-003  5.0485000E-005
 -8.3831500E-004  5.5393200E-003  4.4540200E-005
 -8.4611600E-004  5.2726300E-003  3.8457100E-005
 -8.4997300E-004  4.9997200E-003  3.2249800E-005
 -8.5011700E-004  4.7207300E-003  2.5933500E-005
 -8.4644800E-004  4.4384200E-003  1.9526000E-005
 -8.3919000E-004  4.1527200E-003  1.3047200E-005
 -8.2832100E-004  3.8667300E-003  6.5204500E-006
 -8.1399100E-004  3.5799300E-003 -2.7727800E-008
 -7.9630900E-004  3.2960000E-003 -6.5657200E-006
 -7.7528600E-004  3.0137200E-003 -1.3057000E-005
 -7.5121200E-004  2.7376000E-003 -1.9457900E-005
 -7.2388300E-004  2.4654300E-003 -2.5717000E-005
 -6.9385000E-004  2.2028800E-003 -3.1772900E-005
 -6.6056200E-004  1.9463400E-003 -3.7551500E-005
 -6.2500500E-004  1.7030600E-003 -4.2964300E-005
 -5.8600900E-004  1.4675800E-003 -4.7903600E-005
 -5.4537400E-004  1.2492500E-003 -5.2239200E-005
 -5.0074600E-004  1.0401300E-003 -5.5812100E-005
 -4.5552600E-004  8.5238400E-004 -5.8428100E-005
 -4.0504200E-004  6.7469300E-004 -5.9849600E-005
 -3.5590300E-004  5.2320000E-004 -5.9780900E-005
 -2.9880500E-004  3.8174100E-004 -5.7862800E-005
 -2.4690100E-004  2.7225600E-004 -5.3632300E-005
 -1.8164300E-004  1.7199400E-004 -4.6554700E-005
 -1.3001900E-004  1.0968900E-004 -3.5886900E-005
 -5.5451500E-005  5.5826900E-005 -2.1028500E-005
 -2.9130600E-003 -3.1359100E-002 -9.5661700E-006
 -2.7763400E-003 -3.0387000E-002 -9.2980700E-006
 -2.6393300E-003 -2.9414900E-002 -8.8455700E-006
 -2.5027500E-003 -2.8442600E-002 -8.2032300E-006
 -2.3662900E-003 -2.7470300E-002 -7.3634300E-006
 -2.2302800E-003 -2.6497900E-002 -6.3194200E-006
 -2.0947900E-003 -2.5525800E-002 -5.0655300E-006
 -1.9599600E-003 -2.4554000E-002 -3.5967100E-006
 -1.8260100E-003 -2.3582900E-002 -1.9094300E-006
 -1.6930900E-003 -2.2612500E-002 -1.3618800E-009
 -1.5614700E-003 -2.1643500E-002  2.1281300E-006
 -1.4313000E-003 -2.0676000E-002  4.4780400E-006
 -1.3029200E-003 -1.9710700E-002  7.0455600E-006
 -1.1765000E-003 -1.8748000E-002  9.8260500E-006
 -1.0524000E-003 -1.7788500E-002  1.2813000E-005
 -9.3082500E-004 -1.6832700E-002  1.5998100E-005
 -8.1214500E-004 -1.5881600E-002  1.9371100E-005
 -6.9659800E-004 -1.4935600E-002  2.2920200E-005
 -5.8454600E-004 -1.3995800E-002  2.6631700E-005
 -4.7625000E-004 -1.3062800E-002  3.0490500E-005
 -3.7206100E-004 -1.2137700E-002  3.4479900E-005
 -2.7224100E-004 -1.1221400E-002  3.8581700E-005
 -1.7713000E-004 -1.0314800E-002  4.2776800E-005
 -8.6968300E-005 -9.4190400E-003  4.7044900E-005
 -2.0752200E-006 -8.5350900E-003  5.1364600E-005
  7.7338000E-005 -7.6641100E-003  5.5714200E-005
  1.5099200E-004 -6.8071700E-003  6.0071200E-005
  2.1871300E-004 -5.9654200E-003  6.4412800E-005
  2.8029000E-004 -5.1399700E-003  6.8716000E-005
  3.3557100E-004 -4.3319700E-003  7.2958300E-005
  3.8445500E-004 -3.5425400E-003  7.7116900E-005
  4.2679500E-004 -2.7728000E-003  8.1170100E-005
  4.6262500E-004 -2.0238800E-003  8.5096400E-005
  4.9181000E-004 -1.2968100E-003  8.8875500E-005
  5.1451000E-004 -5.9269100E-004  9.2488200E-005
  5.3063700E-004  8.7549000E-005  9.5916400E-005
  5.4043700E-004  7.4286900E-004  9.9143400E-005
  5.4391800E-004  1.3724600E-003  1.0215400E-004
  5.4135800E-004  1.9753800E-003  1.0493500E-004
  5.3291500E-004  2.5509500E-003  1.0747400E-004
  5.1883600E-004  3.0983900E-003  1.0976100E-004
  4.9946400E-004  3.6171100E-003  1.1178700E-004
  4.7499100E-004  4.1065400E-003  1.1354600E-004
  4.4592400E-004  4.5662100E-003  1.1503100E-004
  4.1242100E-004  4.9957500E-003  1.1624000E-004
  3.7508500E-004  5.3948300E-003  1.1716900E-004
  3.3409600E-004  5.7632900E-003  1.1781800E-004
  2.9006400E-004  6.1009400E-003  1.1818500E-004
  2.4325300E-004  6.4078200E-003  1.1827300E-004
  1.9419100E-004  6.6839000E-003  1.1808300E-004
  1.4327200E-004  6.9294100E-003  1.1761700E-004
  9.0889400E-005  7.1444800E-003  1.1688000E-004
  3.7564400E-005  7.3295100E-003  1.1587300E-004
 -1.6440900E-005  7.4848100E-003  1.1460200E-004
 -7.0532700E-005  7.6109200E-003  1.1307100E-004
 -1.2453000E-004  7.7083100E-003  1.1128500E-004
 -1.7785100E-004  7.7776800E-003  1.0924800E-004
 -2.3032800E-004  7.8196300E-003  1.0696600E-004
 -2.8147500E-004  7.8350000E-003  1.0444300E-004
 -3.3107600E-004  7.8245200E-003  1.0168400E-004
 -3.7880500E-004  7.7891600E-003  9.8694600E-005
 -4.2436400E-004  7.7297500E-003  9.5480000E-005
 -4.6760400E-004  7.6473900E-003  9.2045400E-005
 -5.0816400E-004  7.5429700E-003  8.8395900E-005
 -5.4603500E-004  7.4177600E-003  8.4537100E-005
 -5.8084700E-004  7.2726500E-003  8.0474500E-005
 -6.1267100E-004  7.1090900E-003  7.6214000E-005
 -6.4119000E-004  6.9279300E-003  7.1761700E-005
 -6.6649100E-004  6.7308000E-003  6.7123900E-005
 -6.8836400E-004  6.5185200E-003  6.2307700E-005
 -7.0686600E-004  6.2928900E-003  5.7320400E-005
 -7.2191300E-004  6.0546200E-003  5.2170300E-005
 -7.3352500E-004  5.8057500E-003  4.6866200E-005
 -7.4172000E-004  5.5468200E-003  4.1418200E-005
 -7.4651700E-004  5.2801300E-003  3.5837200E-005
 -7.4796800E-004  5.0060300E-003  3.0135700E-005
 -7.4616000E-004  4.7270600E-003  2.4327900E-005
 -7.4108700E-004  4.4433400E-003  1.8429900E-005