# vtk DataFile Version 3.0
MMH: CalculiX output 'object.frd' file to 'vtk' format
ASCII
DATASET UNSTRUCTURED_GRID
POINTS 3232 double
 6.00000000E-001 2.10000000E-001 0.00000000E+000
 6.00000000E-001 2.08667000E-001 0.00000000E+000
 6.00000000E-001 2.07333000E-001 0.00000000E+000
 6.00000000E-001 2.06000000E-001 0.00000000E+000
 6.00000000E-001 2.04667000E-001 0.00000000E+000
 6.00000000E-001 2.03333000E-001 0.00000000E+000
 6.00000000E-001 2.02000000E-001 0.00000000E+000
 6.00000000E-001 2.00667000E-001 0.00000000E+000
 6.00000000E-001 1.99333000E-001 0.00000000E+000
 6.00000000E-001 1.98000000E-001 0.00000000E+000
 6.00000000E-001 1.96667000E-001 0.00000000E+000
 6.00000000E-001 1.95333000E-001 0.00000000E+000
 6.00000000E-001 1.94000000E-001 0.00000000E+000
 6.00000000E-001 1.92667000E-001 0.00000000E+000
 6.00000000E-001 1.91333000E-001 0.00000000E+000
 6.00000000E-001 1.90000000E-001 0.00000000E+000
 5.96490000E-001 1.90000000E-001 0.00000000E+000
 5.92980000E-001 1.90000000E-001 0.00000000E+000
 5.89470000E-001 1.90000000E-001 0.00000000E+000
 5.85960000E-001 1.90000000E-001 0.00000000E+000
 5.82449000E-001 1.90000000E-001 0.00000000E+000
 5.78939000E-001 1.90000000E-001 0.00000000E+000
 5.75429000E-001 1.90000000E-001 0.00000000E+000
 5.71919000E-001 1.90000000E-001 0.00000000E+000
 5.68409000E-001 1.90000000E-001 0.00000000E+000
 5.64899000E-001 1.90000000E-001 0.00000000E+000
 5.61389000E-001 1.90000000E-001 0.00000000E+000
 5.57879000E-001 1.90000000E-001 0.00000000E+000
 5.54369000E-001 1.90000000E-001 0.00000000E+000
 5.50859000E-001 1.90000000E-001 0.00000000E+000
 5.47348000E-001 1.90000000E-001 0.00000000E+000
 5.43838000E-001 1.90000000E-001 0.00000000E+000
 5.40328000E-001 1.90000000E-001 0.00000000E+000
 5.36818000E-001 1.90000000E-001 0.00000000E+000
 5.33308000E-001 1.90000000E-001 0.00000000E+000
 5.29798000E-001 1.90000000E-001 0.00000000E+000
 5.26288000E-001 1.90000000E-001 0.00000000E+000
 5.22778000E-001 1.90000000E-001 0.00000000E+000
 5.19268000E-001 1.90000000E-001 0.00000000E+000
 5.15758000E-001 1.90000000E-001 0.00000000E+000
 5.12247000E-001 1.90000000E-001 0.00000000E+000
 5.08737000E-001 1.90000000E-001 0.00000000E+000
 5.05227000E-001 1.90000000E-001 0.00000000E+000
 5.01717000E-001 1.90000000E-001 0.00000000E+000
 4.98207000E-001 1.90000000E-001 0.00000000E+000
 4.94697000E-001 1.90000000E-001 0.00000000E+000
 4.91187000E-001 1.90000000E-001 0.00000000E+000
 4.87677000E-001 1.90000000E-001 0.00000000E+000
 4.84167000E-001 1.90000000E-001 0.00000000E+000
 4.80657000E-001 1.90000000E-001 0.00000000E+000
 4.77146000E-001 1.90000000E-001 0.00000000E+000
 4.73636000E-001 1.90000000E-001 0.00000000E+000
 4.70126000E-001 1.90000000E-001 0.00000000E+000
 4.66616000E-001 1.90000000E-001 0.00000000E+000
 4.63106000E-001 1.90000000E-001 0.00000000E+000
 4.59596000E-001 1.90000000E-001 0.00000000E+000
 4.56086000E-001 1.90000000E-001 0.00000000E+000
 4.52576000E-001 1.90000000E-001 0.00000000E+000
 4.49066000E-001 1.90000000E-001 0.00000000E+000
 4.45556000E-001 1.90000000E-001 0.00000000E+000
 4.42045000E-001 1.90000000E-001 0.00000000E+000
 4.38535000E-001 1.90000000E-001 0.00000000E+000
 4.35025000E-001 1.90000000E-001 0.00000000E+000
 4.31515000E-001 1.90000000E-001 0.00000000E+000
 4.28005000E-001 1.90000000E-001 0.00000000E+000
 4.24495000E-001 1.90000000E-001 0.00000000E+000
 4.20985000E-001 1.90000000E-001 0.00000000E+000
 4.17475000E-001 1.90000000E-001 0.00000000E+000
 4.13965000E-001 1.90000000E-001 0.00000000E+000
 4.10455000E-001 1.90000000E-001 0.00000000E+000
 4.06944000E-001 1.90000000E-001 0.00000000E+000
 4.03434000E-001 1.90000000E-001 0.00000000E+000
 3.99924000E-001 1.90000000E-001 0.00000000E+000
 3.96414000E-001 1.90000000E-001 0.00000000E+000
 3.92904000E-001 1.90000000E-001 0.00000000E+000
 3.89394000E-001 1.90000000E-001 0.00000000E+000
 3.85884000E-001 1.90000000E-001 0.00000000E+000
 3.82374000E-001 1.90000000E-001 0.00000000E+000
 3.78864000E-001 1.90000000E-001 0.00000000E+000
 3.75353000E-001 1.90000000E-001 0.00000000E+000
 3.71843000E-001 1.90000000E-001 0.00000000E+000
 3.68333000E-001 1.90000000E-001 0.00000000E+000
 3.64823000E-001 1.90000000E-001 0.00000000E+000
 3.61313000E-001 1.90000000E-001 0.00000000E+000
 3.57803000E-001 1.90000000E-001 0.00000000E+000
 3.54293000E-001 1.90000000E-001 0.00000000E+000
 3.50783000E-001 1.90000000E-001 0.00000000E+000
 3.47273000E-001 1.90000000E-001 0.00000000E+000
 3.43763000E-001 1.90000000E-001 0.00000000E+000
 3.40252000E-001 1.90000000E-001 0.00000000E+000
 3.36742000E-001 1.90000000E-001 0.00000000E+000
 3.33232000E-001 1.90000000E-001 0.00000000E+000
 3.29722000E-001 1.90000000E-001 0.00000000E+000
 3.26212000E-001 1.90000000E-001 0.00000000E+000
 3.22702000E-001 1.90000000E-001 0.00000000E+000
 3.19192000E-001 1.90000000E-001 0.00000000E+000
 3.15682000E-001 1.90000000E-001 0.00000000E+000
 3.12172000E-001 1.90000000E-001 0.00000000E+000
 3.08661000E-001 1.90000000E-001 0.00000000E+000
 3.05151000E-001 1.90000000E-001 0.00000000E+000
 3.01641000E-001 1.90000000E-001 0.00000000E+000
 2.98131000E-001 1.90000000E-001 0.00000000E+000
 2.94621000E-001 1.90000000E-001 0.00000000E+000
 2.91111000E-001 1.90000000E-001 0.00000000E+000
 2.87601000E-001 1.90000000E-001 0.00000000E+000
 2.84091000E-001 1.90000000E-001 0.00000000E+000
 2.80581000E-001 1.90000000E-001 0.00000000E+000
 2.77071000E-001 1.90000000E-001 0.00000000E+000
 2.73560000E-001 1.90000000E-001 0.00000000E+000
 2.70050000E-001 1.90000000E-001 0.00000000E+000
 2.66540000E-001 1.90000000E-001 0.00000000E+000
 2.63030000E-001 1.90000000E-001 0.00000000E+000
 2.59520000E-001 1.90000000E-001 0.00000000E+000
 2.56010000E-001 1.90000000E-001 0.00000000E+000
 2.52500000E-001 1.90000000E-001 0.00000000E+000
 2.48990000E-001 1.90000000E-001 0.00000000E+000
 2.48990000E-001 1.91333000E-001 0.00000000E+000
 2.48990000E-001 1.92667000E-001 0.00000000E+000
 2.48990000E-001 1.94000000E-001 0.00000000E+000
 2.48990000E-001 1.95333000E-001 0.00000000E+000
 2.48990000E-001 1.96667000E-001 0.00000000E+000
 2.48990000E-001 1.98000000E-001 0.00000000E+000
 2.48990000E-001 1.99333000E-001 0.00000000E+000
 2.48990000E-001 2.00667000E-001 0.00000000E+000
 2.48990000E-001 2.02000000E-001 0.00000000E+000
 2.48990000E-001 2.03333000E-001 0.00000000E+000
 2.48990000E-001 2.04667000E-001 0.00000000E+000
 2.48990000E-001 2.06000000E-001 0.00000000E+000
 2.48990000E-001 2.07333000E-001 0.00000000E+000
 2.48990000E-001 2.08667000E-001 0.00000000E+000
 2.48990000E-001 2.10000000E-001 0.00000000E+000
 2.52500000E-001 2.10000000E-001 0.00000000E+000
 2.56010000E-001 2.10000000E-001 0.00000000E+000
 2.59520000E-001 2.10000000E-001 0.00000000E+000
 2.63030000E-001 2.10000000E-001 0.00000000E+000
 2.66540000E-001 2.10000000E-001 0.00000000E+000
 2.70050000E-001 2.10000000E-001 0.00000000E+000
 2.73560000E-001 2.10000000E-001 0.00000000E+000
 2.77071000E-001 2.10000000E-001 0.00000000E+000
 2.80581000E-001 2.10000000E-001 0.00000000E+000
 2.84091000E-001 2.10000000E-001 0.00000000E+000
 2.87601000E-001 2.10000000E-001 0.00000000E+000
 2.91111000E-001 2.10000000E-001 0.00000000E+000
 2.94621000E-001 2.10000000E-001 0.00000000E+000
 2.98131000E-001 2.10000000E-001 0.00000000E+000
 3.01641000E-001 2.10000000E-001 0.00000000E+000
 3.05151000E-001 2.10000000E-001 0.00000000E+000
 3.08661000E-001 2.10000000E-001 0.00000000E+000
 3.12172000E-001 2.10000000E-001 0.00000000E+000
 3.15682000E-001 2.10000000E-001 0.00000000E+000
 3.19192000E-001 2.10000000E-001 0.00000000E+000
 3.22702000E-001 2.10000000E-001 0.00000000E+000
 3.26212000E-001 2.10000000E-001 0.00000000E+000
 3.29722000E-001 2.10000000E-001 0.00000000E+000
 3.33232000E-001 2.10000000E-001 0.00000000E+000
 3.36742000E-001 2.10000000E-001 0.00000000E+000
 3.40252000E-001 2.10000000E-001 0.00000000E+000
 3.43763000E-001 2.10000000E-001 0.00000000E+000
 3.47273000E-001 2.10000000E-001 0.00000000E+000
 3.50783000E-001 2.10000000E-001 0.00000000E+000
 3.54293000E-001 2.10000000E-001 0.00000000E+000
 3.57803000E-001 2.10000000E-001 0.00000000E+000
 3.61313000E-001 2.10000000E-001 0.00000000E+000
 3.64823000E-001 2.10000000E-001 0.00000000E+000
 3.68333000E-001 2.10000000E-001 0.00000000E+000
 3.71843000E-001 2.10000000E-001 0.00000000E+000
 3.75353000E-001 2.10000000E-001 0.00000000E+000
 3.78864000E-001 2.10000000E-001 0.00000000E+000
 3.82374000E-001 2.10000000E-001 0.00000000E+000
 3.85884000E-001 2.10000000E-001 0.00000000E+000
 3.89394000E-001 2.10000000E-001 0.00000000E+000
 3.92904000E-001 2.10000000E-001 0.00000000E+000
 3.96414000E-001 2.10000000E-001 0.00000000E+000
 3.99924000E-001 2.10000000E-001 0.00000000E+000
 4.03434000E-001 2.10000000E-001 0.00000000E+000
 4.06944000E-001 2.10000000E-001 0.00000000E+000
 4.10455000E-001 2.10000000E-001 0.00000000E+000
 4.13965000E-001 2.10000000E-001 0.00000000E+000
 4.17475000E-001 2.10000000E-001 0.00000000E+000
 4.20985000E-001 2.10000000E-001 0.00000000E+000
 4.24495000E-001 2.10000000E-001 0.00000000E+000
 4.28005000E-001 2.10000000E-001 0.00000000E+000
 4.31515000E-001 2.10000000E-001 0.00000000E+000
 4.35025000E-001 2.10000000E-001 0.00000000E+000
 4.38535000E-001 2.10000000E-001 0.00000000E+000
 4.42045000E-001 2.10000000E-001 0.00000000E+000
 4.45556000E-001 2.10000000E-001 0.00000000E+000
 4.49066000E-001 2.10000000E-001 0.00000000E+000
 4.52576000E-001 2.10000000E-001 0.00000000E+000
 4.56086000E-001 2.10000000E-001 0.00000000E+000
 4.59596000E-001 2.10000000E-001 0.00000000E+000
 4.63106000E-001 2.10000000E-001 0.00000000E+000
 4.66616000E-001 2.10000000E-001 0.00000000E+000
 4.70126000E-001 2.10000000E-001 0.00000000E+000
 4.73636000E-001 2.10000000E-001 0.00000000E+000
 4.77146000E-001 2.10000000E-001 0.00000000E+000
 4.80657000E-001 2.10000000E-001 0.00000000E+000
 4.84167000E-001 2.10000000E-001 0.00000000E+000
 4.87677000E-001 2.10000000E-001 0.00000000E+000
 4.91187000E-001 2.10000000E-001 0.00000000E+000
 4.94697000E-001 2.10000000E-001 0.00000000E+000
[...]
POINT_DATA 3232
VECTORS DISP double
  2.2139000E-004  5.8130000E-003  1.0264900E-004
  1.5241800E-004  5.8126800E-003  1.0255700E-004
  7.9611800E-005  5.8149200E-003  1.0227900E-004
  9.0012100E-006  5.8166700E-003  1.0185600E-004
 -6.2572100E-005  5.8186800E-003  1.0132700E-004
 -1.3348600E-004  5.8206000E-003  1.0071000E-004
 -2.0465500E-004  5.8225600E-003  1.0003400E-004
 -2.7565800E-004  5.8244800E-003  9.9320300E-005
 -3.4673000E-004  5.8264100E-003  9.8600500E-005
 -4.1769800E-004  5.8283000E-003  9.7901600E-005
 -4.8874600E-004  5.8301900E-003  9.7250400E-005
 -5.5978400E-004  5.8320600E-003  9.6674000E-005
 -6.3075400E-004  5.8339200E-003  9.6195900E-005
 -7.0189300E-004  5.8357800E-003  9.5836200E-005
 -7.7279200E-004  5.8376200E-003  9.5609500E-005
 -8.4410700E-004  5.8395400E-003  9.5530600E-005
 -8.3943500E-004  6.0262800E-003  9.5489200E-005
 -8.3519300E-004  6.2132900E-003  9.5352300E-005
 -8.3064000E-004  6.4001300E-003  9.5107400E-005
 -8.2615100E-004  6.5870000E-003  9.4748700E-005
 -8.2134900E-004  6.7736900E-003  9.4265300E-005
 -8.1631500E-004  6.9603200E-003  9.3649100E-005
 -8.1080300E-004  7.1465400E-003  9.2893500E-005
 -8.0475900E-004  7.3324200E-003  9.1995500E-005
 -7.9802800E-004  7.5174500E-003  9.0955300E-005
 -7.9049800E-004  7.7016100E-003  8.9775900E-005
 -7.8208400E-004  7.8842800E-003  8.8464300E-005
 -7.7265400E-004  8.0653600E-003  8.7029000E-005
 -7.6218000E-004  8.2441400E-003  8.5482100E-005
 -7.5053300E-004  8.4204100E-003  8.3837200E-005
 -7.3772700E-004  8.5935000E-003  8.2109900E-005
 -7.2365900E-004  8.7630000E-003  8.0317400E-005
 -7.0836600E-004  8.9283500E-003  7.8477700E-005
 -6.9178700E-004  9.0889600E-003  7.6610200E-005
 -6.7396800E-004  9.2444100E-003  7.4733900E-005
 -6.5489900E-004  9.3939700E-003  7.2868900E-005
 -6.3462600E-004  9.5373100E-003  7.1034100E-005
 -6.1318800E-004  9.6736900E-003  6.9248900E-005
 -5.9062800E-004  9.8027800E-003  6.7530900E-005
 -5.6702600E-004  9.9239500E-003  6.5897800E-005
 -5.4242200E-004  1.0036800E-002  6.4365100E-005
 -5.1692100E-004  1.0140900E-002  6.2947400E-005
 -4.9057300E-004  1.0235800E-002  6.1657600E-005
 -4.6348400E-004  1.0321300E-002  6.0506600E-005
 -4.3572100E-004  1.0396700E-002  5.9504100E-005
 -4.0737900E-004  1.0462100E-002  5.8657000E-005
 -3.7854500E-004  1.0517000E-002  5.7971500E-005
 -3.4928900E-004  1.0561400E-002  5.7450600E-005
 -3.1972100E-004  1.0594900E-002  5.7096800E-005
 -2.8988500E-004  1.0617500E-002  5.6909500E-005
 -2.5990100E-004  1.0629000E-002  5.6887500E-005
 -2.2979700E-004  1.0629500E-002  5.7027400E-005
 -1.9968700E-004  1.0619000E-002  5.7324200E-005
 -1.6959800E-004  1.0597300E-002  5.7772400E-005
 -1.3962200E-004  1.0564800E-002  5.8364000E-005
 -1.0979500E-004  1.0521200E-002  5.9091600E-005
 -8.0177100E-005  1.0467000E-002  5.9945000E-005
 -5.0824800E-005  1.0402000E-002  6.0915500E-005
 -2.1757700E-005  1.0326700E-002  6.1991700E-005
  6.9451500E-006  1.0241000E-002  6.3163700E-005
  3.5298200E-005  1.0145400E-002  6.4419900E-005
  6.3210100E-005  1.0040000E-002  6.5749500E-005
  9.0712300E-005  9.9249500E-003  6.7141500E-005
  1.1771900E-004  9.8008300E-003  6.8584800E-005
  1.4425600E-004  9.6675600E-003  7.0069400E-005
  1.7026600E-004  9.5258500E-003  7.1584100E-005
  1.9574000E-004  9.3755700E-003  7.3120600E-005
  2.2067300E-004  9.2174600E-003  7.4668300E-005
  2.4500400E-004  9.0514800E-003  7.6219900E-005
  2.6878300E-004  8.8782300E-003  7.7766600E-005
  2.9190100E-004  8.6979100E-003  7.9301900E-005
  3.1444800E-004  8.5108500E-003  8.0819100E-005
  3.3628600E-004  8.3175600E-003  8.2312300E-005
  3.5751700E-004  8.1180700E-003  8.3776900E-005
  3.7800100E-004  7.9132000E-003  8.5207700E-005
  3.9782400E-004  7.7027100E-003  8.6602400E-005
  4.1686800E-004  7.4876200E-003  8.7956300E-005
  4.3517500E-004  7.2676100E-003  8.9268600E-005
  4.5267100E-004  7.0436900E-003  9.0536100E-005
  4.6934600E-004  6.8156700E-003  9.1758400E-005
  4.8515600E-004  6.5843500E-003  9.2933800E-005
  5.0006300E-004  6.3498200E-003  9.4061900E-005
  5.1402300E-004  6.1126100E-003  9.5142600E-005
  5.2700100E-004  5.8730900E-003  9.6174800E-005
  5.3891500E-004  5.6315800E-003  9.7159600E-005
  5.4977700E-004  5.3886200E-003  9.8095200E-005
  5.5942200E-004  5.1444800E-003  9.8983100E-005
  5.6794700E-004  4.8996900E-003  9.9820800E-005
  5.7507600E-004  4.6546900E-003  1.0060900E-004
  5.8100800E-004  4.4097600E-003  1.0134500E-004
  5.8535000E-004  4.1657500E-003  1.0202800E-004
  5.8839800E-004  3.9225100E-003  1.0265300E-004
  5.8965900E-004  3.6814500E-003  1.0321700E-004
  5.8950700E-004  3.4418700E-003  1.0371300E-004
  5.8736900E-004  3.2057900E-003  1.0413500E-004
  5.8367600E-004  2.9720300E-003  1.0447100E-004
  5.7780300E-004  2.7431000E-003  1.0471000E-004
  5.7021300E-004  2.5174600E-003  1.0483500E-004
  5.6025300E-004  2.2980400E-003  1.0482500E-004
  5.4840300E-004  2.0829700E-003  1.0465600E-004
  5.3399500E-004  1.8756100E-003  1.0429600E-004
  5.1751800E-004  1.6737400E-003  1.0370400E-004
  4.9831500E-004  1.4812300E-003  1.0283300E-004
  4.7683300E-004  1.2953100E-003  1.0161900E-004
  4.5252500E-004  1.1207000E-003  9.9989500E-005
  4.2565100E-004  9.5363500E-004  9.7844800E-005
  3.9600200E-004  8.0026700E-004  9.5076200E-005
  3.6331400E-004  6.5508600E-004  9.1527600E-005
  3.2822600E-004  5.2663800E-004  8.7031900E-005
  2.8921000E-004  4.0645200E-004  8.1345000E-005
  2.4884400E-004  3.0706000E-004  7.4209000E-005
  2.0274000E-004  2.1489900E-004  6.5227600E-005
  1.5802000E-004  1.4978300E-004  5.4010800E-005
  1.0416000E-004  8.7420900E-005  3.9883800E-005
  6.1172000E-005  6.3047900E-005  2.2392600E-005
  0.0000000E+000  0.0000000E+000  0.0000000E+000
  0.0000000E+000  0.0000000E+000  0.0000000E+000
  0.0000000E+000  0.0000000E+000  0.0000000E+000
  0.0000000E+000  0.0000000E+000  0.0000000E+000
  0.0000000E+000  0.0000000E+000  0.0000000E+000
  0.0000000E+000  0.0000000E+000  0.0000000E+000
  0.0000000E+000  0.0000000E+000  0.0000000E+000
  0.0000000E+000  0.0000000E+000  0.0000000E+000
  0.0000000E+000  0.0000000E+000  0.0000000E+000
  0.0000000E+000  0.0000000E+000  0.0000000E+000
  0.0000000E+000  0.0000000E+000  0.0000000E+000
  0.0000000E+000  0.0000000E+000  0.0000000E+000
  0.0000000E+000  0.0000000E+000  0.0000000E+000
  0.0000000E+000  0.0000000E+000  0.0000000E+000
  0.0000000E+000  0.0000000E+000  0.0000000E+000
  0.0000000E+000  0.0000000E+000  0.0000000E+000
 -6.2456900E-005  6.4429100E-005 -1.0823300E-005
 -1.0442400E-004  8.7289600E-005 -1.7185800E-005
 -1.5927100E-004  1.4868000E-004 -2.0591500E-005
 -2.0458100E-004  2.1178300E-004 -2.1455700E-005
 -2.5240500E-004  3.0236600E-004 -2.0447900E-005
 -2.9482600E-004  3.9910500E-004 -1.7946800E-005
 -3.3691200E-004  5.1740700E-004 -1.4343300E-005
 -3.7572800E-004  6.4276600E-004 -9.8894200E-006
 -4.1314300E-004  7.8592500E-004 -4.8219100E-006
 -4.4833200E-004  9.3604500E-004  6.9528100E-007
 -4.8169700E-004  1.1010300E-003  6.5149800E-006
 -5.1337800E-004  1.2725100E-003  1.2531400E-005
 -5.4310000E-004  1.4563200E-003  1.8652100E-005
 -5.7142700E-004  1.6460400E-003  2.4810500E-005
 -5.9779900E-004  1.8458000E-003  3.0948600E-005
 -6.2292400E-004  2.0508500E-003  3.7025900E-005
 -6.4616500E-004  2.2638600E-003  4.3006400E-005
 -6.6822300E-004  2.4814800E-003  4.8867200E-005
 -6.8850200E-004  2.7052500E-003  5.4586200E-005
 -7.0760600E-004  2.9328400E-003  6.0152600E-005
 -7.2505100E-004  3.1650400E-003  6.5553300E-005
 -7.4129800E-004  3.4001500E-003  7.0784900E-005
 -7.5600300E-004  3.6386000E-003  7.5841200E-005
 -7.6947500E-004  3.8789700E-003  8.0722900E-005
 -7.8150100E-004  4.1216100E-003  8.5428700E-005
 -7.9226900E-004  4.3651200E-003  8.9961400E-005
 -8.0165500E-004  4.6100000E-003  9.4323600E-005
 -8.0977000E-004  4.8547000E-003  9.8518800E-005
 -8.1653500E-004  5.0999200E-003  1.0255200E-004
 -8.2203500E-004  5.3440300E-003  1.0642800E-004
 -8.2618400E-004  5.5877600E-003  1.1015300E-004
 -8.2908500E-004  5.8296000E-003  1.1373000E-004
 -8.3061700E-004  6.0701000E-003  1.1716800E-004
 -8.3091500E-004  6.3080600E-003  1.2047000E-004
 -8.2982400E-004  6.5436900E-003  1.2364400E-004
 -8.2750100E-004  6.7761900E-003  1.2669400E-004
 -8.2377600E-004  7.0053800E-003  1.2962500E-004
 -8.1880300E-004  7.2308700E-003  1.3244300E-004
 -8.1243100E-004  7.4521200E-003  1.3515100E-004
 -8.0477800E-004  7.6690500E-003  1.3775500E-004
 -7.9574400E-004  7.8809200E-003  1.4025700E-004
 -7.8538900E-004  8.0877700E-003  1.4266100E-004
 -7.7368000E-004  8.2888500E-003  1.4496800E-004
 -7.6061800E-004  8.4841000E-003  1.4718200E-004
 -7.4623000E-004  8.6729800E-003  1.4930200E-004
 -7.3047900E-004  8.8551700E-003  1.5132900E-004
 -7.1342900E-004  9.0304300E-003  1.5326400E-004
 -6.9503700E-004  9.1981600E-003  1.5510400E-004
 -6.7537400E-004  9.3583900E-003  1.5684800E-004
 -6.5442600E-004  9.5103100E-003  1.5849300E-004
 -6.3224200E-004  9.6541000E-003  1.6003700E-004
 -6.0886500E-004  9.7889400E-003  1.6147400E-004
 -5.8431100E-004  9.9149500E-003  1.6280100E-004
 -5.5868000E-004  1.0031500E-002  1.6401200E-004
 -5.3196700E-004  1.0138500E-002  1.6510200E-004
 -5.0431700E-004  1.0235600E-002  1.6606300E-004
 -4.7572600E-004  1.0322500E-002  1.6688900E-004
 -4.4635500E-004  1.0399100E-002  1.6757400E-004
 -4.1623100E-004  1.0464900E-002  1.6810900E-004
 -3.8550600E-004  1.0520200E-002  1.6848800E-004
 -3.5426000E-004  1.0564300E-002  1.6870300E-004
 -3.2261500E-004  1.0597600E-002  1.6874800E-004
 -2.9071300E-004  1.0619500E-002  1.6861500E-004
 -2.5864400E-004  1.0630200E-002  1.6830000E-004
 -2.2659800E-004  1.0629700E-002  1.6779700E-004
 -1.9465200E-004  1.0617900E-002  1.6710100E-004
 -1.6300700E-004  1.0594900E-002  1.6621000E-004
 -1.3175700E-004  1.0560700E-002  1.6512300E-004
 -1.0107800E-004  1.0515700E-002  1.6383900E-004
 -7.1100200E-005  1.0459700E-002  1.6235900E-004
 -4.1947400E-005  1.0393400E-002  1.6068900E-004
 -1.3794800E-005  1.0316500E-002  1.5883300E-004
  1.3296600E-005  1.0229900E-002  1.5679900E-004
  3.9123800E-005  1.0133400E-002  1.5459700E-004
  6.3674200E-005  1.0027800E-002  1.5224000E-004
  8.6750200E-005  9.9133300E-003  1.4974200E-004
  1.0836600E-004  9.7904200E-003  1.4711900E-004
  1.2835800E-004  9.6597900E-003  1.4439000E-004
  1.4675600E-004  9.5215700E-003  1.4157600E-004
  1.6344900E-004  9.3767800E-003  1.3869900E-004
  1.7847500E-004  9.2254200E-003  1.3578300E-004
  1.9177900E-004  9.0686400E-003  1.3285300E-004
  2.0341900E-004  8.9063700E-003  1.2993500E-004
  2.1338100E-004  8.7398600E-003  1.2705400E-004
  2.2175900E-004  8.5689000E-003  1.2423900E-004
  2.2856300E-004  8.3948800E-003  1.2151300E-004
  2.3393100E-004  8.2173700E-003  1.1890400E-004
  2.3788900E-004  8.0379400E-003  1.1643300E-004
  2.4061700E-004  7.8558100E-003  1.1412600E-004
  2.4214300E-004  7.6728400E-003  1.1199900E-004
  2.4269500E-004  7.4877400E-003  1.1007200E-004
  2.4227400E-004  7.3028200E-003  1.0835700E-004
  2.4118300E-004  7.1160300E-003  1.0686700E-004
  2.3931400E-004  6.9304100E-003  1.0560600E-004
  2.3715800E-004  6.7427700E-003  1.0458000E-004
  2.3427900E-004  6.5573900E-003  1.0378100E-004
  2.3169700E-004  6.3692000E-003  1.0321100E-004
  2.2807100E-004  6.1848300E-003  1.0284700E-004
  2.2602500E-004  5.9956200E-003  1.0267600E-004
  1.5422200E-004  5.9998000E-003  1.0258900E-004
  1.5778800E-004  6.1854100E-003  1.0275800E-004
  1.6066000E-004  6.3727600E-003  1.0311800E-004
  1.6360200E-004  6.5586200E-003  1.0368000E-004
  1.6634400E-004  6.7460500E-003  1.0446300E-004
  1.6862400E-004  6.9321500E-003  1.0547000E-004
  1.7063400E-004  7.1192800E-003  1.0670500E-004
  1.7191800E-004  7.3050300E-003  1.0816500E-004
  1.7270500E-004  7.4911100E-003  1.0984400E-004
  1.7255900E-004  7.6755300E-003  1.1173200E-004
  1.7165600E-004  7.8594400E-003  1.1381400E-004
  1.6963600E-004  8.0411400E-003  1.1607400E-004
  1.6661100E-004  8.2213400E-003  1.1849200E-004
  1.6231000E-004  8.3986000E-003  1.2104700E-004
  1.5679500E-004  8.5732800E-003  1.2371400E-004
  1.4988400E-004  8.7440900E-003  1.2647100E-004
  1.4160100E-004  8.9111800E-003  1.2929000E-004
  1.3184400E-004  9.0733800E-003  1.3214600E-004
  1.2062800E-004  9.2306700E-003  1.3501400E-004
  1.0790200E-004  9.3820000E-003  1.3786800E-004
  9.3703400E-005  9.5272400E-003  1.4068400E-004
  7.8007100E-005  9.6654600E-003  1.4343800E-004
  6.0897300E-005  9.7964400E-003  1.4610900E-004
  4.2356000E-005  9.9194200E-003  1.4867700E-004
  2.2515800E-005  1.0034100E-002  1.5112400E-004
  1.3719400E-006  1.0139900E-002  1.5343200E-004
 -2.0914200E-005  1.0236400E-002  1.5558900E-004
 -4.4316700E-005  1.0323300E-002  1.5758200E-004
 -6.8678800E-005  1.0400100E-002  1.5940100E-004
 -9.3917700E-005  1.0466700E-002  1.6103900E-004
 -1.1991600E-004  1.0522600E-002  1.6249000E-004
 -1.4651800E-004  1.0567800E-002  1.6375200E-004
 -1.7366000E-004  1.0602000E-002  1.6482100E-004
 -2.0112900E-004  1.0625000E-002  1.6569800E-004
 -2.2889900E-004  1.0636800E-002  1.6638500E-004
 -2.5673100E-004  1.0637400E-002  1.6688400E-004
 -2.8461200E-004  1.0626700E-002  1.6720000E-004
 -3.1232100E-004  1.0604700E-002  1.6733700E-004
 -3.3982100E-004  1.0571600E-002  1.6730100E-004
 -3.6694500E-004  1.0527300E-002  1.6709800E-004
 -3.9361300E-004  1.0472100E-002  1.6673500E-004
 -4.1973400E-004  1.0406100E-002  1.6622000E-004
 -4.4517700E-004  1.0329500E-002  1.6555800E-004
 -4.6992200E-004  1.0242500E-002  1.6475800E-004
 -4.9380800E-004  1.0145400E-002  1.6382600E-004
 -5.1686100E-004  1.0038400E-002  1.6276800E-004
 -5.3892200E-004  9.9216800E-003  1.6159000E-004
 -5.6002600E-004  9.7957300E-003  1.6029900E-004
 -5.8005200E-004  9.6606600E-003  1.5889900E-004
 -5.9901100E-004  9.5169800E-003  1.5739500E-004
 -6.1684800E-004  9.3647800E-003  1.5579000E-004
 -6.3352200E-004  9.2046500E-003  1.5408800E-004
 -6.4905700E-004  9.0366900E-003  1.5229100E-004
 -6.6336200E-004  8.8614300E-003  1.5040100E-004
 -6.7652200E-004  8.6790900E-003  1.4841900E-004
 -6.8841600E-004  8.4901000E-003  1.4634500E-004
 -6.9915700E-004  8.2948000E-003  1.4417900E-004
 -7.0863100E-004  8.0935100E-003  1.4191900E-004
 -7.1693800E-004  7.8866700E-003  1.3956400E-004
 -7.2400500E-004  7.6745300E-003  1.3711100E-004
 -7.2988100E-004  7.4575900E-003  1.3455700E-004
 -7.3456400E-004  7.2360900E-003  1.3189900E-004
 -7.3803400E-004  7.0104900E-003  1.2913300E-004
 -7.4035500E-004  6.7811600E-003  1.2625400E-004
 -7.4145500E-004  6.5483800E-003  1.2325700E-004
 -7.4143500E-004  6.3127400E-003  1.2013700E-004
 -7.4020300E-004  6.0743100E-003  1.1689000E-004
 -7.3785800E-004  5.8339300E-003  1.1350800E-004
 -7.3433200E-004  5.5914500E-003  1.0998800E-004
 -7.2967100E-004  5.3479200E-003  1.0632200E-004
 -7.2387700E-004  5.1030600E-003  1.0250600E-004
 -7.1690900E-004  4.8580500E-003  9.8533400E-005
 -7.0885600E-004  4.6125400E-003  9.4400500E-005
 -6.9958700E-004  4.3678100E-003  9.0102400E-005
 -6.8926200E-004  4.1234900E-003  8.5635200E-005
 -6.7769300E-004  3.8809200E-003  8.0996100E-005
 -6.6506500E-004  3.6397200E-003  7.6183200E-005
 -6.5118500E-004  3.4013100E-003  7.1196200E-005
 -6.3620800E-004  3.1652300E-003  6.6036400E-005
 -6.1999000E-004  2.9331600E-003  6.0707500E-005
 -6.0259800E-004  2.7043600E-003  5.5215300E-005
 -5.8399500E-004  2.4809500E-003  4.9569700E-005
 -5.6410500E-004  2.2617000E-003  4.3784200E-005
 -5.4304400E-004  2.0494300E-003  3.7877600E-005
 -5.2054700E-004  1.8421700E-003  3.1874700E-005
 -4.9693600E-004  1.6437300E-003  2.5808100E-005
 -4.7167800E-004  1.4510500E-003  1.9720100E-005
 -4.4541400E-004  1.2692700E-003  1.3664400E-005
 -4.1716600E-004  1.0939500E-003  7.7094400E-006
 -3.8816100E-004  9.3188700E-004  1.9413000E-006
 -3.5657600E-004  7.7683100E-004 -3.5311300E-006
 -3.2479600E-004  6.3777700E-004 -8.5717600E-006
 -2.8931800E-004  5.0600900E-004 -1.3010100E-005
 -2.5488000E-004  3.9354400E-004 -1.6630400E-005
 -2.1457400E-004  2.8816600E-004 -1.9166700E-005
 -1.7797000E-004  2.0625500E-004 -2.0271700E-005
 -1.3132700E-004  1.3081800E-004 -1.9539800E-005
 -9.4442600E-005  8.3392200E-005 -1.6403200E-005
 -4.0281200E-005  4.2114200E-005 -1.0391200E-005
  8.4095900E-005  6.0017000E-003  1.0232700E-004
  8.6543900E-005  6.1879600E-003  1.0250100E-004
  9.0025700E-005  6.3745900E-003  1.0284700E-004
  9.2841500E-005  6.5613300E-003  1.0338200E-004
  9.5624800E-005  6.7480100E-003  1.0412100E-004
  9.8155600E-005  6.9349800E-003  1.0507100E-004
  1.0017300E-004  7.1214700E-003  1.0623400E-004
  1.0191300E-004  7.3080200E-003  1.0760800E-004
  1.0288400E-004  7.4936200E-003  1.0918700E-004
  1.0339700E-004  7.6787400E-003  1.1096200E-004
  1.0296100E-004  7.8623000E-003  1.1291800E-004
  1.0184800E-004  8.0446100E-003  1.1504100E-004
  9.9641900E-005  8.2245900E-003  1.1731200E-004
  9.6547200E-005  8.4023900E-003  1.1971000E-004
  9.2247900E-005  8.5769300E-003  1.2221500E-004
  8.6885000E-005  8.7482200E-003  1.2480200E-004
  8.0237000E-005  8.9152400E-003  1.2744700E-004
  7.2405200E-005  9.0778500E-003  1.3012800E-004
  6.3240000E-005  9.2351200E-003  1.3281900E-004
  5.2837400E-005  9.3868000E-003  1.3549700E-004
  4.1087700E-005  9.5320500E-003  1.3814000E-004
  2.8114900E-005  9.6705500E-003  1.4072500E-004
  1.3823400E-005  9.8015800E-003  1.4323300E-004
 -1.6193900E-006  9.9247700E-003  1.4564400E-004
 -1.8300400E-005  1.0039500E-002  1.4794300E-004
 -3.6019800E-005  1.0145400E-002  1.5011300E-004
 -5.4836800E-005  1.0242100E-002  1.5214100E-004
 -7.4554700E-005  1.0329000E-002  1.5401800E-004
 -9.5173400E-005  1.0406000E-002  1.5573300E-004
 -1.1654000E-004  1.0472600E-002  1.5727900E-004
 -1.3856600E-004  1.0528600E-002  1.5865200E-004
 -1.6117200E-004  1.0573800E-002  1.5984700E-004
 -1.8418000E-004  1.0608000E-002  1.6086500E-004
 -2.0757800E-004  1.0631100E-002  1.6170300E-004
 -2.3112700E-004  1.0642900E-002  1.6236500E-004
 -2.5485300E-004  1.0643500E-002  1.6285200E-004
 -2.7850800E-004  1.0632800E-002  1.6316800E-004
 -3.0210700E-004  1.0610800E-002  1.6331700E-004
 -3.2544800E-004  1.0577600E-002  1.6330500E-004
 -3.4849600E-004  1.0533400E-002  1.6313800E-004
 -3.7113100E-004  1.0478200E-002  1.6282100E-004
 -3.9324800E-004  1.0412200E-002  1.6236200E-004
 -4.1482100E-004  1.0335500E-002  1.6176600E-004
 -4.3568400E-004  1.0248500E-002  1.6103900E-004
 -4.5588200E-004  1.0151300E-002  1.6018800E-004
 -4.7522600E-004  1.0044300E-002  1.5921900E-004
 -4.9378800E-004  9.9275800E-003  1.5813700E-004
 -5.1140400E-004  9.8015500E-003  1.5694700E-004
 -5.2812300E-004  9.6664900E-003  1.5565300E-004
 -5.4385000E-004  9.5226900E-003  1.5426100E-004
 -5.5857600E-004  9.3705200E-003  1.5277200E-004
 -5.7229600E-004  9.2102600E-003  1.5119000E-004
 -5.8493200E-004  9.0423000E-003  1.4951600E-004
 -5.9656200E-004  8.8669300E-003  1.4775200E-004
 -6.0705800E-004  8.6845600E-003  1.4589900E-004
 -6.1654500E-004  8.4954900E-003  1.4395700E-004
 -6.2488800E-004  8.3001100E-003  1.4192400E-004
 -6.3220600E-004  8.0987400E-003  1.3980000E-004
 -6.3840800E-004  7.8918000E-003  1.3758300E-004
 -6.4355400E-004  7.6795800E-003  1.3527100E-004
 -6.4764000E-004  7.4625300E-003  1.3285900E-004
 -6.5063500E-004  7.2409200E-003  1.3034600E-004
 -6.5263200E-004  7.0152200E-003  1.2772600E-004
 -6.5351600E-004  6.7857000E-003  1.2499600E-004
 -6.5345100E-004  6.5528700E-003  1.2215100E-004
 -6.5227300E-004  6.3169400E-003  1.1918600E-004
 -6.5016900E-004  6.0785200E-003  1.1609500E-004
 -6.4698100E-004  5.8377400E-003  1.1287400E-004
 -6.4286100E-004  5.5953200E-003  1.0951600E-004
 -6.3770800E-004  5.3512900E-003  1.0601800E-004
 -6.3159600E-004  5.1065100E-003  1.0237200E-004
 -6.2450900E-004  4.8609200E-003  9.8573900E-005
 -6.1643300E-004  4.6155100E-003  9.4619200E-005
 -6.0742300E-004  4.3701100E-003  9.0503700E-005
 -5.9741300E-004  4.1258900E-003  8.6223200E-005
 -5.8647400E-004  3.8825600E-003  8.1775000E-005
 -5.7455700E-004  3.6414700E-003  7.7157400E-005
 -5.6166600E-004  3.4021800E-003  7.2369600E-005