# vtk DataFile Version 3.0
MMH: CalculiX output 'object.frd' file to 'vtk' format
ASCII
DATASET UNSTRUCTURED_GRID
POINTS 3232 double
 6.00000000E-001 2.10000000E-001 0.00000000E+000
 6.00000000E-001 2.08667000E-001 0.00000000E+000
 6.00000000E-001 2.07333000E-001 0.00000000E+000
 6.00000000E-001 2.06000000E-001 0.00000000E+000
 6.00000000E-001 2.04667000E-001 0.00000000E+000
 6.00000000E-001 2.03333000E-001 0.00000000E+000
 6.00000000E-001 2.02000000E-001 0.00000000E+000
 6.00000000E-001 2.00667000E-001 0.00000000E+000
 6.00000000E-001 1.99333000E-001 0.00000000E+000
 6.00000000E-001 1.98000000E-001 0.00000000E+000
 6.00000000E-001 1.96667000E-001 0.00000000E+000
 6.00000000E-001 1.95333000E-001 0.00000000E+000
 6.00000000E-001 1.94000000E-001 0.00000000E+000
 6.00000000E-001 1.92667000E-001 0.00000000E+000
 6.00000000E-001 1.91333000E-001 0.00000000E+000
 6.00000000E-001 1.90000000E-001 0.00000000E+000
 5.96490000E-001 1.90000000E-001 0.00000000E+000
 5.92980000E-001 1.90000000E-001 0.00000000E+000
 5.89470000E-001 1.90000000E-001 0.00000000E+000
 5.85960000E-001 1.90000000E-001 0.00000000E+000
 5.82449000E-001 1.90000000E-001 0.00000000E+000
 5.78939000E-001 1.90000000E-001 0.00000000E+000
 5.75429000E-001 1.90000000E-001 0.00000000E+000
 5.71919000E-001 1.90000000E-001 0.00000000E+000
 5.68409000E-001 1.90000000E-001 0.00000000E+000
 5.64899000E-001 1.90000000E-001 0.00000000E+000
 5.61389000E-001 1.90000000E-001 0.00000000E+000
 5.57879000E-001 1.90000000E-001 0.00000000E+000
 5.54369000E-001 1.90000000E-001 0.00000000E+000
 5.50859000E-001 1.90000000E-001 0.00000000E+000
 5.47348000E-001 1.90000000E-001 0.00000000E+000
 5.43838000E-001 1.90000000E-001 0.00000000E+000
 5.40328000E-001 1.90000000E-001 0.00000000E+000
 5.36818000E-001 1.90000000E-001 0.00000000E+000
 5.33308000E-001 1.90000000E-001 0.00000000E+000
 5.29798000E-001 1.90000000E-001 0.00000000E+000
 5.26288000E-001 1.90000000E-001 0.00000000E+000
 5.22778000E-001 1.90000000E-001 0.00000000E+000
 5.19268000E-001 1.90000000E-001 0.00000000E+000
 5.15758000E-001 1.90000000E-001 0.00000000E+000
 5.12247000E-001 1.90000000E-001 0.00000000E+000
 5.08737000E-001 1.90000000E-001 0.00000000E+000
 5.05227000E-001 1.90000000E-001 0.00000000E+000
 5.01717000E-001 1.90000000E-001 0.00000000E+000
 4.98207000E-001 1.90000000E-001 0.00000000E+000
 4.94697000E-001 1.90000000E-001 0.00000000E+000
 4.91187000E-001 1.90000000E-001 0.00000000E+000
 4.87677000E-001 1.90000000E-001 0.00000000E+000
 4.84167000E-001 1.90000000E-001 0.00000000E+000
 4.80657000E-001 1.90000000E-001 0.00000000E+000
 4.77146000E-001 1.90000000E-001 0.00000000E+000
 4.73636000E-001 1.90000000E-001 0.00000000E+000
 4.70126000E-001 1.90000000E-001 0.00000000E+000
 4.66616000E-001 1.90000000E-001 0.00000000E+000
 4.63106000E-001 1.90000000E-001 0.00000000E+000
 4.59596000E-001 1.90000000E-001 0.00000000E+000
 4.56086000E-001 1.90000000E-001 0.00000000E+000
 4.52576000E-001 1.90000000E-001 0.00000000E+000
 4.49066000E-001 1.90000000E-001 0.00000000E+000
 4.45556000E-001 1.90000000E-001 0.00000000E+000
 4.42045000E-001 1.90000000E-001 0.00000000E+000
 4.38535000E-001 1.90000000E-001 0.00000000E+000
 4.35025000E-001 1.90000000E-001 0.00000000E+000
 4.31515000E-001 1.90000000E-001 0.00000000E+000
 4.28005000E-001 1.90000000E-001 0.00000000E+000
 4.24495000E-001 1.90000000E-001 0.00000000E+000
 4.20985000E-001 1.90000000E-001 0.00000000E+000
 4.17475000E-001 1.90000000E-001 0.00000000E+000
 4.13965000E-001 1.90000000E-001 0.00000000E+000
 4.10455000E-001 1.90000000E-001 0.00000000E+000
 4.06944000E-001 1.90000000E-001 0.00000000E+000
 4.03434000E-001 1.90000000E-001 0.00000000E+000
 3.99924000E-001 1.90000000E-001 0.00000000E+000
 3.96414000E-001 1.90000000E-001 0.00000000E+000
 3.92904000E-001 1.90000000E-001 0.00000000E+000
 3.89394000E-001 1.90000000E-001 0.00000000E+000
 3.85884000E-001 1.90000000E-001 0.00000000E+000
 3.82374000E-001 1.90000000E-001 0.00000000E+000
 3.78864000E-001 1.90000000E-001 0.00000000E+000
 3.75353000E-001 1.90000000E-001 0.00000000E+000
 3.71843000E-001 1.90000000E-001 0.00000000E+000
 3.68333000E-001 1.90000000E-001 0.00000000E+000
 3.64823000E-001 1.90000000E-001 0.00000000E+000
 3.61313000E-001 1.90000000E-001 0.00000000E+000
 3.57803000E-001 1.90000000E-001 0.00000000E+000
 3.54293000E-001 1.90000000E-001 0.00000000E+000
 3.50783000E-001 1.90000000E-001 0.00000000E+000
 3.47273000E-001 1.90000000E-001 0.00000000E+000
 3.43763000E-001 1.90000000E-001 0.00000000E+000
 3.40252000E-001 1.90000000E-001 0.00000000E+000
 3.36742000E-001 1.90000000E-001 0.00000000E+000
 3.33232000E-001 1.90000000E-001 0.00000000E+000
 3.29722000E-001 1.90000000E-001 0.00000000E+000
 3.26212000E-001 1.90000000E-001 0.00000000E+000
 3.22702000E-001 1.90000000E-001 0.00000000E+000
 3.19192000E-001 1.90000000E-001 0.00000000E+000
 3.15682000E-001 1.90000000E-001 0.00000000E+000
 3.12172000E-001 1.90000000E-001 0.00000000E+000
 3.08661000E-001 1.90000000E-001 0.00000000E+000
 3.05151000E-001 1.90000000E-001 0.00000000E+000
 3.01641000E-001 1.90000000E-001 0.00000000E+000
 2.98131000E-001 1.90000000E-001 0.00000000E+000
 2.94621000E-001 1.90000000E-001 0.00000000E+000
 2.91111000E-001 1.90000000E-001 0.00000000E+000
 2.87601000E-001 1.90000000E-001 0.00000000E+000
 2.84091000E-001 1.90000000E-001 0.00000000E+000
 2.80581000E-001 1.90000000E-001 0.00000000E+000
 2.77071000E-001 1.90000000E-001 0.00000000E+000
 2.73560000E-001 1.90000000E-001 0.00000000E+000
 2.70050000E-001 1.90000000E-001 0.00000000E+000
 2.66540000E-001 1.90000000E-001 0.00000000E+000
 2.63030000E-001 1.90000000E-001 0.00000000E+000
 2.59520000E-001 1.90000000E-001 0.00000000E+000
 2.56010000E-001 1.90000000E-001 0.00000000E+000
 2.52500000E-001 1.90000000E-001 0.00000000E+000
 2.48990000E-001 1.90000000E-001 0.00000000E+000
 2.48990000E-001 1.91333000E-001 0.00000000E+000
 2.48990000E-001 1.92667000E-001 0.00000000E+000
 2.48990000E-001 1.94000000E-001 0.00000000E+000
 2.48990000E-001 1.95333000E-001 0.00000000E+000
 2.48990000E-001 1.96667000E-001 0.00000000E+000
 2.48990000E-001 1.98000000E-001 0.00000000E+000
 2.48990000E-001 1.99333000E-001 0.00000000E+000
 2.48990000E-001 2.00667000E-001 0.00000000E+000
 2.48990000E-001 2.02000000E-001 0.00000000E+000
 2.48990000E-001 2.03333000E-001 0.00000000E+000
 2.48990000E-001 2.04667000E-001 0.00000000E+000
 2.48990000E-001 2.06000000E-001 0.00000000E+000
 2.48990000E-001 2.07333000E-001 0.00000000E+000
 2.48990000E-001 2.08667000E-001 0.00000000E+000
 2.48990000E-001 2.10000000E-001 0.00000000E+000
 2.52500000E-001 2.10000000E-001 0.00000000E+000
 2.56010000E-001 2.10000000E-001 0.00000000E+000
 2.59520000E-001 2.10000000E-001 0.00000000E+000
 2.63030000E-001 2.10000000E-001 0.00000000E+000
 2.66540000E-001 2.10000000E-001 0.00000000E+000
 2.70050000E-001 2.10000000E-001 0.00000000E+000
 2.73560000E-001 2.10000000E-001 0.00000000E+000
 2.77071000E-001 2.10000000E-001 0.00000000E+000
 2.80581000E-001 2.10000000E-001 0.00000000E+000
 2.84091000E-001 2.10000000E-001 0.00000000E+000
 2.87601000E-001 2.10000000E-001 0.00000000E+000
 2.91111000E-001 2.10000000E-001 0.00000000E+000
 2.94621000E-001 2.10000000E-001 0.00000000E+000
 2.98131000E-001 2.10000000E-001 0.00000000E+000
 3.01641000E-001 2.10000000E-001 0.00000000E+000
 3.05151000E-001 2.10000000E-001 0.00000000E+000
 3.08661000E-001 2.10000000E-001 0.00000000E+000
 3.12172000E-001 2.10000000E-001 0.00000000E+000
 3.15682000E-001 2.10000000E-001 0.00000000E+000
 3.19192000E-001 2.10000000E-001 0.00000000E+000
 3.22702000E-001 2.10000000E-001 0.00000000E+000
 3.26212000E-001 2.10000000E-001 0.00000000E+000
 3.29722000E-001 2.10000000E-001 0.00000000E+000
 3.33232000E-001 2.10000000E-001 0.00000000E+000
 3.36742000E-001 2.10000000E-001 0.00000000E+000
 3.40252000E-001 2.10000000E-001 0.00000000E+000
 3.43763000E-001 2.10000000E-001 0.00000000E+000
 3.47273000E-001 2.10000000E-001 0.00000000E+000
 3.50783000E-001 2.10000000E-001 0.00000000E+000
 3.54293000E-001 2.10000000E-001 0.00000000E+000
 3.57803000E-001 2.10000000E-001 0.00000000E+000
 3.61313000E-001 2.10000000E-001 0.00000000E+000
 3.64823000E-001 2.10000000E-001 0.00000000E+000
 3.68333000E-001 2.10000000E-001 0.00000000E+000
 3.71843000E-001 2.10000000E-001 0.00000000E+000
 3.75353000E-001 2.10000000E-001 0.00000000E+000
 3.78864000E-001 2.10000000E-001 0.00000000E+000
 3.82374000E-001 2.10000000E-001 0.00000000E+000
 3.85884000E-001 2.10000000E-001 0.00000000E+000
 3.89394000E-001 2.10000000E-001 0.00000000E+000
 3.92904000E-001 2.10000000E-001 0.00000000E+000
 3.96414000E-001 2.10000000E-001 0.00000000E+000
 3.99924000E-001 2.10000000E-001 0.00000000E+000
 4.03434000E-001 2.10000000E-001 0.00000000E+000
 4.06944000E-001 2.10000000E-001 0.00000000E+000
 4.10455000E-001 2.10000000E-001 0.00000000E+000
 4.13965000E-001 2.10000000E-001 0.00000000E+000
 4.17475000E-001 2.10000000E-001 0.00000000E+000
 4.20985000E-001 2.10000000E-001 0.00000000E+000
 4.24495000E-001 2.10000000E-001 0.00000000E+000
 4.28005000E-001 2.10000000E-001 0.00000000E+000
 4.31515000E-001 2.10000000E-001 0.00000000E+000
 4.35025000E-001 2.10000000E-001 0.00000000E+000
 4.38535000E-001 2.10000000E-001 0.00000000E+000
 4.42045000E-001 2.10000000E-001 0.00000000E+000
 4.45556000E-001 2.10000000E-001 0.00000000E+000
 4.49066000E-001 2.10000000E-001 0.00000000E+000
 4.52576000E-001 2.10000000E-001 0.00000000E+000
 4.56086000E-001 2.10000000E-001 0.00000000E+000
 4.59596000E-001 2.10000000E-001 0.00000000E+000
 4.63106000E-001 2.10000000E-001 0.00000000E+000
 4.66616000E-001 2.10000000E-001 0.00000000E+000
 4.70126000E-001 2.10000000E-001 0.00000000E+000
 4.73636000E-001 2.10000000E-001 0.00000000E+000
 4.77146000E-001 2.10000000E-001 0.00000000E+000
 4.80657000E-001 2.10000000E-001 0.00000000E+000
 4.84167000E-001 2.10000000E-001 0.00000000E+000
 4.87677000E-001 2.10000000E-001 0.00000000E+000
 4.91187000E-001 2.10000000E-001 0.00000000E+000
 4.94697000E-001 2.10000000E-001 0.00000000E+000
[...]
POINT_DATA 3232
VECTORS DISP double
 -1.3825900E-003 -2.1428500E-002  1.3866000E-005
 -1.7081400E-003 -2.1389100E-002  1.3729800E-005
 -2.0355300E-003 -2.1348000E-002  1.3322100E-005
 -2.3617700E-003 -2.1307500E-002  1.2675900E-005
 -2.6884900E-003 -2.1266700E-002  1.1833000E-005
 -3.0148600E-003 -2.1226000E-002  1.0827200E-005
 -3.3413700E-003 -2.1185300E-002  9.7033900E-006
 -3.6677400E-003 -2.1144700E-002  8.5072200E-006
 -3.9942200E-003 -2.1104100E-002  7.2892200E-006
 -4.3205900E-003 -2.1063500E-002  6.0994300E-006
 -4.6470800E-003 -2.1023000E-002  4.9875900E-006
 -4.9734900E-003 -2.0982500E-002  4.0000400E-006
 -5.3000800E-003 -2.0941900E-002  3.1800100E-006
 -5.6264500E-003 -2.0901500E-002  2.5620800E-006
 -5.9533400E-003 -2.0860900E-002  2.1786600E-006
 -6.2793200E-003 -2.0820400E-002  2.0505800E-006
 -6.1727100E-003 -1.9961100E-002  1.9178100E-006
 -6.0651400E-003 -1.9101300E-002  1.5206400E-006
 -5.9579300E-003 -1.8242000E-002  8.5784000E-007
 -5.8500400E-003 -1.7382500E-002 -8.0479400E-008
 -5.7419500E-003 -1.6523500E-002 -1.3051300E-006
 -5.6331200E-003 -1.5664700E-002 -2.8245600E-006
 -5.5237500E-003 -1.4806800E-002 -4.6470500E-006
 -5.4134900E-003 -1.3949700E-002 -6.7777300E-006
 -5.3024700E-003 -1.3094300E-002 -9.2195200E-006
 -5.1904200E-003 -1.2240500E-002 -1.1972600E-005
 -5.0774500E-003 -1.1389500E-002 -1.5033600E-005
 -4.9633800E-003 -1.0541300E-002 -1.8397000E-005
 -4.8483000E-003 -9.6970500E-003 -2.2053100E-005
 -4.7321100E-003 -8.8571500E-003 -2.5990200E-005
 -4.6149300E-003 -8.0226000E-003 -3.0193100E-005
 -4.4967100E-003 -7.1941400E-003 -3.4643600E-005
 -4.3775700E-003 -6.3726900E-003 -3.9321400E-005
 -4.2575500E-003 -5.5592500E-003 -4.4203000E-005
 -4.1367700E-003 -4.7546700E-003 -4.9263100E-005
 -4.0153600E-003 -3.9601300E-003 -5.4473700E-005
 -3.8934000E-003 -3.1764700E-003 -5.9805800E-005
 -3.7710900E-003 -2.4049500E-003 -6.5227700E-005
 -3.6485400E-003 -1.6464500E-003 -7.0707600E-005
 -3.5259600E-003 -9.0217700E-004 -7.6211700E-005
 -3.4034700E-003 -1.7310000E-004 -8.1706000E-005
 -3.2812900E-003  5.3964500E-004 -8.7156500E-005
 -3.1595700E-003  1.2350200E-003 -9.2528700E-005
 -3.0385100E-003  1.9120600E-003 -9.7788900E-005
 -2.9182800E-003  2.5696700E-003 -1.0290300E-004
 -2.7990300E-003  3.2070100E-003 -1.0784000E-004
 -2.6809600E-003  3.8230200E-003 -1.1256900E-004
 -2.5641900E-003  4.4169700E-003 -1.1706000E-004
 -2.4488900E-003  4.9878900E-003 -1.2128500E-004
 -2.3351700E-003  5.5351100E-003 -1.2521900E-004
 -2.2231800E-003  6.0578600E-003 -1.2883900E-004
 -2.1129900E-003  6.5554900E-003 -1.3212500E-004
 -2.0047100E-003  7.0274300E-003 -1.3505700E-004
 -1.8984100E-003  7.4730800E-003 -1.3762100E-004
 -1.7941400E-003  7.8920900E-003 -1.3980300E-004
 -1.6919600E-003  8.2839300E-003 -1.4159100E-004
 -1.5918800E-003  8.6484200E-003 -1.4298000E-004
 -1.4939400E-003  8.9851500E-003 -1.4396100E-004
 -1.3981100E-003  9.2940600E-003 -1.4453400E-004
 -1.3044200E-003  9.5749300E-003 -1.4469600E-004
 -1.2128100E-003  9.8277700E-003 -1.4445000E-004
 -1.1232900E-003  1.0052600E-002 -1.4379800E-004
 -1.0357900E-003  1.0249400E-002 -1.4274500E-004
 -9.5030000E-004  1.0418400E-002 -1.4129900E-004
 -8.6675700E-004  1.0559800E-002 -1.3946800E-004
 -7.8511000E-004  1.0673800E-002 -1.3726100E-004
 -7.0533400E-004  1.0760800E-002 -1.3468900E-004
 -6.2734300E-004  1.0821200E-002 -1.3176600E-004
 -5.5114600E-004  1.0855300E-002 -1.2850200E-004
 -4.7663600E-004  1.0863700E-002 -1.2491400E-004
 -4.0385700E-004  1.0846900E-002 -1.2101300E-004
 -3.3269200E-004  1.0805500E-002 -1.1681700E-004
 -2.6321500E-004  1.0740200E-002 -1.1233900E-004
 -1.9531800E-004  1.0651400E-002 -1.0759600E-004
 -1.2909500E-004  1.0540400E-002 -1.0260400E-004
 -6.4461500E-005  1.0407300E-002 -9.7377800E-005
 -1.5242400E-006  1.0253600E-002 -9.1934600E-005
  5.9763200E-005  1.0079400E-002 -8.6289500E-005
  1.1928900E-004  9.8863700E-003 -8.0459200E-005
  1.7705900E-004  9.6748000E-003 -7.4458900E-005
  2.3294600E-004  9.4461000E-003 -6.8304600E-005
  2.8693400E-004  9.2009500E-003 -6.2011800E-005
  3.3885500E-004  8.9406300E-003 -5.5595300E-005
  3.8870100E-004  8.6660300E-003 -4.9071000E-005
  4.3623300E-004  8.3783700E-003 -4.2452700E-005
  4.8148700E-004  8.0786600E-003 -3.5756500E-005
  5.2411700E-004  7.7682000E-003 -2.8995500E-005
  5.6424700E-004  7.4479500E-003 -2.2186000E-005
  6.0138800E-004  7.1194700E-003 -1.5341000E-005
  6.3578500E-004  6.7834400E-003 -8.4772100E-006
  6.6679400E-004  6.4419200E-003 -1.6084400E-006
  6.9479000E-004  6.0951200E-003  5.2481200E-006
  7.1898200E-004  5.7457100E-003  1.2076000E-005
  7.3987300E-004  5.3933400E-003  1.8856500E-005
  7.5654200E-004  5.0413500E-003  2.5569200E-005
  7.6960700E-004  4.6888100E-003  3.2191600E-005
  7.7804700E-004  4.3397200E-003  3.8697500E-005
  7.8257600E-004  3.9925800E-003  4.5056600E-005
  7.8210900E-004  3.6520200E-003  5.1234100E-005
  7.7743100E-004  3.3160000E-003  5.7186300E-005
  7.6743300E-004  2.9897800E-003  6.2864400E-005
  7.5293900E-004  2.6706800E-003  6.8203400E-005
  7.3288400E-004  2.3648300E-003  7.3132100E-005
  7.0804000E-004  2.0685300E-003  7.7552000E-005
  6.7755500E-004  1.7892600E-003  8.1356400E-005
  6.4191300E-004  1.5216800E-003  8.4394000E-005
  6.0084100E-004  1.2754300E-003  8.6502100E-005
  5.5401900E-004  1.0424500E-003  8.7447100E-005
  5.0253400E-004  8.3594000E-004  8.6977900E-005
  4.4414300E-004  6.4329900E-004  8.4726800E-005
  3.8292500E-004  4.8370000E-004  8.0305000E-005
  3.1232600E-004  3.3672700E-004  7.3110000E-005
  2.4330000E-004  2.3262600E-004  6.2548700E-005
  1.6016700E-004  1.3446400E-004  4.7585900E-005
  9.3273500E-005  9.6248800E-005  2.7522800E-005
  0.0000000E+000  0.0000000E+000  0.0000000E+000
  0.0000000E+000  0.0000000E+000  0.0000000E+000
  0.0000000E+000  0.0000000E+000  0.0000000E+000
  0.0000000E+000  0.0000000E+000  0.0000000E+000
  0.0000000E+000  0.0000000E+000  0.0000000E+000
  0.0000000E+000  0.0000000E+000  0.0000000E+000
  0.0000000E+000  0.0000000E+000  0.0000000E+000
  0.0000000E+000  0.0000000E+000  0.0000000E+000
  0.0000000E+000  0.0000000E+000  0.0000000E+000
  0.0000000E+000  0.0000000E+000  0.0000000E+000
  0.0000000E+000  0.0000000E+000  0.0000000E+000
  0.0000000E+000  0.0000000E+000  0.0000000E+000
  0.0000000E+000  0.0000000E+000  0.0000000E+000
  0.0000000E+000  0.0000000E+000  0.0000000E+000
  0.0000000E+000  0.0000000E+000  0.0000000E+000
  0.0000000E+000  0.0000000E+000  0.0000000E+000
 -1.0098400E-004  1.0153900E-004 -2.5045700E-005
 -1.6928200E-004  1.3622700E-004 -4.2698200E-005
 -2.5918100E-004  2.3212400E-004 -5.5296000E-005
 -3.3423900E-004  3.3084700E-004 -6.3471900E-005
 -4.1378200E-004  4.7360700E-004 -6.8276700E-005
 -4.8505700E-004  6.2639300E-004 -7.0309100E-005
 -5.5604400E-004  8.1379000E-004 -7.0191700E-005
 -6.2200300E-004  1.0126900E-003 -6.8331100E-005
 -6.8580500E-004  1.2399700E-003 -6.5112900E-005
 -7.4601200E-004  1.4784800E-003 -6.0807400E-005
 -8.0320800E-004  1.7403700E-003 -5.5662600E-005
 -8.5740600E-004  2.0123900E-003 -4.9859200E-005
 -9.0817000E-004  2.3033500E-003 -4.3560000E-005
 -9.5611500E-004  2.6029500E-003 -3.6885600E-005
 -1.0003900E-003  2.9173900E-003 -2.9945000E-005
 -1.0418000E-003  3.2387000E-003 -2.2818300E-005
 -1.0793800E-003  3.5710000E-003 -1.5579600E-005
 -1.1139300E-003  3.9082100E-003 -8.2820400E-006
 -1.1445200E-003  4.2528200E-003 -9.7693600E-007
 -1.1718400E-003  4.6001700E-003  6.3008300E-006
 -1.1951100E-003  4.9515900E-003  1.3515100E-005
 -1.2148400E-003  5.3033700E-003  2.0643000E-005
 -1.2304300E-003  5.6561600E-003  2.7659100E-005
 -1.2422400E-003  6.0067800E-003  3.4548000E-005
 -1.2498100E-003  6.3555600E-003  4.1292200E-005
 -1.2533900E-003  6.6995400E-003  4.7880500E-005
 -1.2526700E-003  7.0390100E-003  5.4301600E-005
 -1.2477900E-003  7.3710600E-003  6.0546700E-005
 -1.2385600E-003  7.6959700E-003  6.6609100E-005
 -1.2251100E-003  8.0109300E-003  7.2481400E-005
 -1.2072700E-003  8.3161800E-003  7.8159700E-005
 -1.1852200E-003  8.6091000E-003  8.3638100E-005
 -1.1588100E-003  8.8897200E-003  8.8914100E-005
 -1.1282700E-003  9.1558200E-003  9.3983500E-005
 -1.0934800E-003  9.4070500E-003  9.8843700E-005
 -1.0547000E-003  9.6417300E-003  1.0349200E-004
 -1.0118700E-003  9.8590800E-003  1.0792600E-004
 -9.6528900E-004  1.0057900E-002  1.1214300E-004
 -9.1494300E-004  1.0237200E-002  1.1614000E-004
 -8.6114900E-004  1.0396100E-002  1.1991500E-004
 -8.0399600E-004  1.0533300E-002  1.2346600E-004
 -7.4377300E-004  1.0648300E-002  1.2679000E-004
 -6.8068900E-004  1.0739900E-002  1.2988300E-004
 -6.1501100E-004  1.0807600E-002  1.3274300E-004
 -5.4704800E-004  1.0850400E-002  1.3536600E-004
 -4.7707000E-004  1.0867600E-002  1.3774900E-004
 -4.0544800E-004  1.0858700E-002  1.3988700E-004
 -3.3248900E-004  1.0822700E-002  1.4177600E-004
 -2.5858400E-004  1.0759600E-002  1.4341200E-004
 -1.8411100E-004  1.0668300E-002  1.4479000E-004
 -1.0943800E-004  1.0549100E-002  1.4590500E-004
 -3.5029100E-005  1.0400900E-002  1.4675100E-004
  3.8780400E-005  1.0224000E-002  1.4732500E-004
  1.1146600E-004  1.0017800E-002  1.4762000E-004
  1.8270400E-004  9.7824300E-003  1.4763300E-004
  2.5196000E-004  9.5176800E-003  1.4735900E-004
  3.1888700E-004  9.2234900E-003  1.4679400E-004
  3.8300000E-004  8.9002700E-003  1.4593600E-004
  4.4390300E-004  8.5477000E-003  1.4478000E-004
  5.0119900E-004  8.1666600E-003  1.4332900E-004
  5.5444100E-004  7.7568000E-003  1.4158000E-004
  6.0333900E-004  7.3192300E-003  1.3953600E-004
  6.4742400E-004  6.8538200E-003  1.3720000E-004
  6.8648700E-004  6.3616600E-003  1.3457800E-004
  7.2010700E-004  5.8430400E-003  1.3167600E-004
  7.4810900E-004  5.2988700E-003  1.2850400E-004
  7.7018300E-004  4.7299400E-003  1.2507400E-004
  7.8616000E-004  4.1369400E-003  1.2139800E-004
  7.9587800E-004  3.5211100E-003  1.1749500E-004
  7.9916800E-004  2.8829900E-003  1.1338100E-004
  7.9602000E-004  2.2240700E-003  1.0907800E-004
  7.8628600E-004  1.5449500E-003  1.0460600E-004
  7.7008100E-004  8.4714300E-004  9.9991900E-005
  7.4731900E-004  1.3141300E-004  9.5260500E-005
  7.1818900E-004 -6.0083100E-004  9.0439500E-005
  6.8270700E-004 -1.3486300E-003  8.5557600E-005
  6.4110200E-004 -2.1107300E-003  8.0643700E-005
  5.9350000E-004 -2.8859700E-003  7.5728300E-005
  5.4015300E-004 -3.6733200E-003  7.0841000E-005
  4.8128300E-004 -4.4715200E-003  6.6012200E-005
  4.1716700E-004 -5.2796600E-003  6.1271200E-005
  3.4809100E-004 -6.0964700E-003  5.6646500E-005
  2.7435700E-004 -6.9212000E-003  5.2166000E-005
  1.9629600E-004 -7.7525800E-003  4.7855300E-005
  1.1421800E-004 -8.5900600E-003  4.3739100E-005
  2.8490300E-005 -9.4323400E-003  3.9838900E-005
 -6.0593400E-005 -1.0279100E-002  3.6175200E-005
 -1.5263000E-004 -1.1129100E-002  3.2764700E-005
 -2.4737400E-004 -1.1982300E-002  2.9622100E-005
 -3.4438500E-004 -1.2837300E-002  2.6758900E-005
 -4.4348600E-004 -1.3694500E-002  2.4183600E-005
 -5.4421600E-004 -1.4552400E-002  2.1901300E-005
 -6.4646300E-004 -1.5411800E-002  1.9914800E-005
 -7.4978600E-004 -1.6270900E-002  1.8222100E-005
 -8.5409900E-004 -1.7131300E-002  1.6821400E-005
 -9.5907000E-004 -1.7990500E-002  1.5703700E-005
 -1.0645200E-003 -1.8851200E-002  1.4864000E-005
 -1.1704200E-003 -1.9709800E-002  1.4287000E-005
 -1.2760600E-003 -2.0571000E-002  1.3961800E-005
 -1.6028400E-003 -2.0529100E-002  1.3824600E-005
 -1.4966400E-003 -1.9669900E-002  1.4142000E-005
 -1.3908900E-003 -1.8809700E-002  1.4706100E-005
 -1.2853900E-003 -1.7950100E-002  1.5525000E-005
 -1.1802300E-003 -1.7089700E-002  1.6614000E-005
 -1.0758200E-003 -1.6230000E-002  1.7978900E-005
 -9.7205700E-004 -1.5370100E-002  1.9627500E-005
 -8.6948500E-004 -1.4511100E-002  2.1562500E-005
 -7.6802100E-004 -1.3652600E-002  2.3785200E-005
 -6.6823000E-004 -1.2795700E-002  2.6293100E-005
 -5.7010600E-004 -1.1940100E-002  2.9081100E-005
 -4.7419800E-004 -1.1087200E-002  3.2140900E-005
 -3.8057400E-004 -1.0236800E-002  3.5461200E-005
 -2.8975500E-004 -9.3902100E-003  3.9027900E-005
 -2.0187400E-004 -8.5476800E-003  4.2824200E-005
 -1.1740600E-004 -7.7104100E-003  4.6830700E-005
 -3.6540900E-005 -6.8789300E-003  5.1025900E-005
  4.0305000E-005 -6.0544500E-003  5.5386000E-005
  1.1290700E-004 -5.2377000E-003  5.9885800E-005
  1.8090700E-004 -4.4298900E-003  6.4498400E-005
  2.4407700E-004 -3.6319300E-003  6.9196000E-005
  3.0211300E-004 -2.8450000E-003  7.3949800E-005
  3.5481900E-004 -2.0701600E-003  7.8730700E-005
  4.0193900E-004 -1.3085700E-003  8.3509500E-005
  4.4333200E-004 -5.6137700E-004  8.8256800E-005
  4.7880200E-004  1.7030700E-004  9.2944300E-005
  5.0826600E-004  8.8523000E-004  9.7544300E-005
  5.3161400E-004  1.5824300E-003  1.0203000E-004
  5.4880700E-004  2.2605800E-003  1.0637700E-004
  5.5985100E-004  2.9188200E-003  1.1056000E-004
  5.6473300E-004  3.5558700E-003  1.1455900E-004
  5.6359400E-004  4.1709300E-003  1.1835300E-004
  5.5644100E-004  4.7628500E-003  1.2192500E-004
  5.4354200E-004  5.3308600E-003  1.2525900E-004
  5.2494300E-004  5.8740400E-003  1.2834200E-004
  5.0099500E-004  6.3915800E-003  1.3116400E-004
  4.7182500E-004  6.8828800E-003  1.3371400E-004
  4.3781000E-004  7.3470900E-003  1.3598600E-004
  3.9918900E-004  7.7839200E-003  1.3797500E-004
  3.5632000E-004  8.1925500E-003  1.3967800E-004
  3.0957000E-004  8.5729200E-003  1.4109300E-004
  2.5924500E-004  8.9243400E-003  1.4222000E-004
  2.0583100E-004  9.2468700E-003  1.4306000E-004
  1.4958900E-004  9.5401100E-003  1.4361600E-004
  9.1070500E-005  9.8041000E-003  1.4389000E-004
  3.0527000E-005  1.0038800E-002  1.4388600E-004
 -3.1489200E-005  1.0244200E-002  1.4360900E-004
 -9.4697000E-005  1.0420600E-002  1.4306200E-004
 -1.5860200E-004  1.0567900E-002  1.4225000E-004
 -2.2286400E-004  1.0686800E-002  1.4117900E-004
 -2.8708900E-004  1.0777300E-002  1.3985300E-004
 -3.5086800E-004  1.0840200E-002  1.3827600E-004
 -4.1392100E-004  1.0875500E-002  1.3645400E-004
 -4.7578900E-004  1.0884100E-002  1.3439000E-004
 -5.3628500E-004  1.0866500E-002  1.3208900E-004
 -5.9494700E-004  1.0823400E-002  1.2955400E-004
 -6.5164000E-004  1.0755500E-002  1.2678900E-004
 -7.0595200E-004  1.0663500E-002  1.2379700E-004
 -7.5775800E-004  1.0548300E-002  1.2058100E-004
 -8.0673800E-004  1.0410700E-002  1.1714300E-004
 -8.5274400E-004  1.0251700E-002  1.1348700E-004
 -8.9558100E-004  1.0072100E-002  1.0961300E-004
 -9.3506200E-004  9.8730100E-003  1.0552600E-004
 -9.7111000E-004  9.6554700E-003  1.0122600E-004
 -1.0035200E-003  9.4203600E-003  9.6716300E-005
 -1.0323100E-003  9.1690800E-003  9.1998900E-005
 -1.0572900E-003  8.9023200E-003  8.7076300E-005
 -1.0785000E-003  8.6217900E-003  8.1951200E-005
 -1.0958400E-003  8.3279700E-003  7.6626900E-005
 -1.1093400E-003  8.0228900E-003  7.1106600E-005
 -1.1189800E-003  7.7068200E-003  6.5395000E-005
 -1.1247500E-003  7.3820700E-003  5.9496600E-005
 -1.1267600E-003  7.0487600E-003  5.3417700E-005
 -1.1249500E-003  6.7093900E-003  4.7165300E-005
 -1.1195000E-003  6.3639800E-003  4.0747900E-005
 -1.1103300E-003  6.0152400E-003  3.4175800E-005
 -1.0976800E-003  5.6630100E-003  2.7461200E-005
 -1.0814900E-003  5.3102600E-003  2.0619200E-005
 -1.0619600E-003  4.9565500E-003  1.3667400E-005
 -1.0391000E-003  4.6053000E-003  6.6275200E-006
 -1.0130500E-003  4.2555600E-003 -4.7461200E-007
 -9.8393700E-004  3.9114400E-003 -7.6072500E-006
 -9.5172400E-004  3.5711700E-003 -1.4732500E-005
 -9.1675700E-004  3.2398900E-003 -2.1804100E-005
 -8.7872400E-004  2.9146600E-003 -2.8765900E-005
 -8.3827900E-004  2.6020200E-003 -3.5549800E-005
 -7.9468600E-004  2.2974200E-003 -4.2072400E-005
 -7.4911800E-004  2.0092900E-003 -4.8232600E-005
 -7.0008500E-004  1.7309300E-003 -5.3905800E-005
 -6.4973000E-004  1.4732700E-003 -5.8940700E-005
 -5.9514900E-004  1.2267200E-003 -6.3150500E-005
 -5.4038100E-004  1.0055900E-003 -6.6305900E-005
 -4.7975800E-004  7.9631500E-004 -6.8125100E-005
 -4.2112400E-004  6.1794300E-004 -6.8256300E-005
 -3.5329800E-004  4.5124200E-004 -6.6270600E-005
 -2.9189000E-004  3.2214100E-004 -6.1614000E-005
 -2.1471600E-004  2.0371500E-004 -5.3644900E-005
 -1.5383600E-004  1.2996800E-004 -4.1472600E-005
 -6.5643900E-005  6.6192800E-005 -2.4374000E-005
 -1.9288200E-003 -2.0488500E-002  1.3417800E-005
 -1.8232200E-003 -1.9628800E-002  1.3717700E-005
 -1.7171000E-003 -1.8769000E-002  1.4241900E-005
 -1.6115800E-003 -1.7908900E-002  1.5001700E-005
 -1.5062800E-003 -1.7048800E-002  1.6008300E-005
 -1.4015200E-003 -1.6188700E-002  1.7270500E-005
 -1.2975100E-003 -1.5329000E-002  1.8793500E-005
 -1.1943000E-003 -1.4469600E-002  2.0581200E-005
 -1.0923100E-003 -1.3611300E-002  2.2633900E-005
 -9.9153400E-004 -1.2754000E-002  2.4949700E-005
 -8.9247400E-004 -1.1898700E-002  2.7523500E-005
 -7.9515400E-004 -1.1045500E-002  3.0347600E-005
 -7.0008300E-004 -1.0195300E-002  3.3411400E-005
 -6.0733400E-004 -9.3485100E-003  3.6701800E-005
 -5.1740100E-004 -8.5062000E-003  4.0203000E-005
 -4.3040500E-004 -7.6689100E-003  4.3897100E-005
 -3.4680400E-004 -6.8377100E-003  4.7763900E-005
 -2.6675700E-004 -6.0133500E-003  5.1781700E-005
 -1.9067600E-004 -5.1969600E-003  5.5926900E-005
 -1.1873900E-004 -4.3894300E-003  6.0174800E-005
 -5.1309400E-005 -3.5919100E-003  6.4499500E-005
  1.1447200E-005 -2.8054300E-003  6.8874600E-005
  6.9211900E-005 -2.0311500E-003  7.3273300E-005
  1.2185900E-004 -1.2701700E-003  7.7668500E-005
  1.6911900E-004 -5.2361300E-004  8.2033500E-005
  2.1091700E-004  2.0730000E-004  8.6342300E-005
  2.4704900E-004  9.2148800E-004  9.0569500E-005
  2.7749100E-004  1.6177800E-003  9.4690600E-005
  3.0213600E-004  2.2951100E-003  9.8682800E-005
  3.2098300E-004  2.9523500E-003  1.0252500E-004
  3.3406200E-004  3.5884800E-003  1.0619600E-004
  3.4136900E-004  4.2024900E-003  1.0968000E-004
  3.4308800E-004  4.7934200E-003  1.1296000E-004
  3.3921300E-004  5.3603800E-003  1.1602100E-004
  3.3006000E-004  5.9024900E-003  1.1885300E-004
  3.1565300E-004  6.4190200E-003  1.2144600E-004
  2.9638400E-004  6.9092100E-003  1.2379000E-004
  2.7235600E-004  7.3724800E-003  1.2588100E-004
  2.4396600E-004  7.8081900E-003  1.2771400E-004
  2.1144700E-004  8.2159300E-003  1.2928700E-004
  1.7513900E-004  8.5952400E-003  1.3059700E-004
  1.3542700E-004  8.9458200E-003  1.3164600E-004
  9.2567600E-005  9.2674100E-003  1.3243400E-004
  4.7075000E-005  9.5598400E-003  1.3296300E-004
 -8.5499700E-007  9.8230300E-003  1.3323700E-004
 -5.0647100E-005  1.0057000E-002  1.3325800E-004
 -1.0211300E-004  1.0261700E-002  1.3303100E-004
 -1.5469800E-004  1.0437400E-002  1.3256000E-004
 -2.0816500E-004  1.0584200E-002  1.3184800E-004
 -2.6205100E-004  1.0702500E-002  1.3090000E-004
 -3.1603000E-004  1.0792600E-002  1.2972000E-004
 -3.6977500E-004  1.0854900E-002  1.2831200E-004
 -4.2287000E-004  1.0889900E-002  1.2668000E-004
 -4.7511500E-004  1.0898200E-002  1.2482800E-004
 -5.2604800E-004  1.0880300E-002  1.2275800E-004
 -5.7555200E-004  1.0836900E-002  1.2047500E-004
 -6.2318400E-004  1.0768700E-002  1.1798000E-004
 -6.6884600E-004  1.0676500E-002  1.1527500E-004
 -7.1218900E-004  1.0561100E-002  1.1236500E-004
 -7.5307500E-004  1.0423300E-002  1.0924900E-004
 -7.9130000E-004  1.0264100E-002  1.0593000E-004
 -8.2665300E-004  1.0084400E-002  1.0240900E-004
 -8.5908900E-004  9.8851700E-003  9.8689200E-005
 -8.8833700E-004  9.6673600E-003  9.4770500E-005
 -9.1447700E-004  9.4322200E-003  9.0654900E-005
 -9.3722100E-004  9.1805500E-003  8.6344000E-005
 -9.5672200E-004  8.9138100E-003  8.1839600E-005
 -9.7273100E-004  8.6327400E-003  7.7143800E-005
 -9.8541100E-004  8.3389900E-003  7.2258900E-005
 -9.9460000E-004  8.0332000E-003  6.7188000E-005
 -1.0004300E-003  7.7172200E-003  6.1934400E-005
 -1.0028400E-003  7.3915800E-003  5.6502500E-005
 -1.0019300E-003  7.0583600E-003  5.0897400E-005
 -9.9772100E-004  6.7179000E-003  4.5125700E-005
 -9.9030300E-004  6.3725800E-003  3.9194600E-005
 -9.7971200E-004  6.0225200E-003  3.3113700E-005
 -9.6611200E-004  5.6704000E-003  2.6894300E-005
 -9.4945500E-004  5.3160400E-003  2.0550000E-005