# vtk DataFile Version 3.0
MMH: CalculiX output 'object.frd' file to 'vtk' format
ASCII
DATASET UNSTRUCTURED_GRID
POINTS 3232 double
 6.00000000E-001 2.10000000E-001 0.00000000E+000
 6.00000000E-001 2.08667000E-001 0.00000000E+000
 6.00000000E-001 2.07333000E-001 0.00000000E+000
 6.00000000E-001 2.06000000E-001 0.00000000E+000
 6.00000000E-001 2.04667000E-001 0.00000000E+000
 6.00000000E-001 2.03333000E-001 0.00000000E+000
 6.00000000E-001 2.02000000E-001 0.00000000E+000
 6.00000000E-001 2.00667000E-001 0.00000000E+000
 6.00000000E-001 1.99333000E-001 0.00000000E+000
 6.00000000E-001 1.98000000E-001 0.00000000E+000
 6.00000000E-001 1.96667000E-001 0.00000000E+000
 6.00000000E-001 1.95333000E-001 0.00000000E+000
 6.00000000E-001 1.94000000E-001 0.00000000E+000
 6.00000000E-001 1.92667000E-001 0.00000000E+000
 6.00000000E-001 1.91333000E-001 0.00000000E+000
 6.00000000E-001 1.90000000E-001 0.00000000E+000
 5.96490000E-001 1.90000000E-001 0.00000000E+000
 5.92980000E-001 1.90000000E-001 0.00000000E+000
 5.89470000E-001 1.90000000E-001 0.00000000E+000
 5.85960000E-001 1.90000000E-001 0.00000000E+000
 5.82449000E-001 1.90000000E-001 0.00000000E+000
 5.78939000E-001 1.90000000E-001 0.00000000E+000
 5.75429000E-001 1.90000000E-001 0.00000000E+000
 5.71919000E-001 1.90000000E-001 0.00000000E+000
 5.68409000E-001 1.90000000E-001 0.00000000E+000
 5.64899000E-001 1.90000000E-001 0.00000000E+000
 5.61389000E-001 1.90000000E-001 0.00000000E+000
 5.57879000E-001 1.90000000E-001 0.00000000E+000
 5.54369000E-001 1.90000000E-001 0.00000000E+000
 5.50859000E-001 1.90000000E-001 0.00000000E+000
 5.47348000E-001 1.90000000E-001 0.00000000E+000
 5.43838000E-001 1.90000000E-001 0.00000000E+000
 5.40328000E-001 1.90000000E-001 0.00000000E+000
 5.36818000E-001 1.90000000E-001 0.00000000E+000
 5.33308000E-001 1.90000000E-001 0.00000000E+000
 5.29798000E-001 1.90000000E-001 0.00000000E+000
 5.26288000E-001 1.90000000E-001 0.00000000E+000
 5.22778000E-001 1.90000000E-001 0.00000000E+000
 5.19268000E-001 1.90000000E-001 0.00000000E+000
 5.15758000E-001 1.90000000E-001 0.00000000E+000
 5.12247000E-001 1.90000000E-001 0.00000000E+000
 5.08737000E-001 1.90000000E-001 0.00000000E+000
 5.05227000E-001 1.90000000E-001 0.00000000E+000
 5.01717000E-001 1.90000000E-001 0.00000000E+000
 4.98207000E-001 1.90000000E-001 0.00000000E+000
 4.94697000E-001 1.90000000E-001 0.00000000E+000
 4.91187000E-001 1.90000000E-001 0.00000000E+000
 4.87677000E-001 1.90000000E-001 0.00000000E+000
 4.84167000E-001 1.90000000E-001 0.00000000E+000
 4.80657000E-001 1.90000000E-001 0.00000000E+000
 4.77146000E-001 1.90000000E-001 0.00000000E+000
 4.73636000E-001 1.90000000E-001 0.00000000E+000
 4.70126000E-001 1.90000000E-001 0.00000000E+000
 4.66616000E-001 1.90000000E-001 0.00000000E+000
 4.63106000E-001 1.90000000E-001 0.00000000E+000
 4.59596000E-001 1.90000000E-001 0.00000000E+000
 4.56086000E-001 1.90000000E-001 0.00000000E+000
 4.52576000E-001 1.90000000E-001 0.00000000E+000
 4.49066000E-001 1.90000000E-001 0.00000000E+000
 4.45556000E-001 1.90000000E-001 0.00000000E+000
 4.42045000E-001 1.90000000E-001 0.00000000E+000
 4.38535000E-001 1.90000000E-001 0.00000000E+000
 4.35025000E-001 1.90000000E-001 0.00000000E+000
 4.31515000E-001 1.90000000E-001 0.00000000E+000
 4.28005000E-001 1.90000000E-001 0.00000000E+000
 4.24495000E-001 1.90000000E-001 0.00000000E+000
 4.20985000E-001 1.90000000E-001 0.00000000E+000
 4.17475000E-001 1.90000000E-001 0.00000000E+000
 4.13965000E-001 1.90000000E-001 0.00000000E+000
 4.10455000E-001 1.90000000E-001 0.00000000E+000
 4.06944000E-001 1.90000000E-001 0.00000000E+000
 4.03434000E-001 1.90000000E-001 0.00000000E+000
 3.99924000E-001 1.90000000E-001 0.00000000E+000
 3.96414000E-001 1.90000000E-001 0.00000000E+000
 3.92904000E-001 1.90000000E-001 0.00000000E+000
 3.89394000E-001 1.90000000E-001 0.00000000E+000
 3.85884000E-001 1.90000000E-001 0.00000000E+000
 3.82374000E-001 1.90000000E-001 0.00000000E+000
 3.78864000E-001 1.90000000E-001 0.00000000E+000
 3.75353000E-001 1.90000000E-001 0.00000000E+000
 3.71843000E-001 1.90000000E-001 0.00000000E+000
 3.68333000E-001 1.90000000E-001 0.00000000E+000
 3.64823000E-001 1.90000000E-001 0.00000000E+000
 3.61313000E-001 1.90000000E-001 0.00000000E+000
 3.57803000E-001 1.90000000E-001 0.00000000E+000
 3.54293000E-001 1.90000000E-001 0.00000000E+000
 3.50783000E-001 1.90000000E-001 0.00000000E+000
 3.47273000E-001 1.90000000E-001 0.00000000E+000
 3.43763000E-001 1.90000000E-001 0.00000000E+000
 3.40252000E-001 1.90000000E-001 0.00000000E+000
 3.36742000E-001 1.90000000E-001 0.00000000E+000
 3.33232000E-001 1.90000000E-001 0.00000000E+000
 3.29722000E-001 1.90000000E-001 0.00000000E+000
 3.26212000E-001 1.90000000E-001 0.00000000E+000
 3.22702000E-001 1.90000000E-001 0.00000000E+000
 3.19192000E-001 1.90000000E-001 0.00000000E+000
 3.15682000E-001 1.90000000E-001 0.00000000E+000
 3.12172000E-001 1.90000000E-001 0.00000000E+000
 3.08661000E-001 1.90000000E-001 0.00000000E+000
 3.05151000E-001 1.90000000E-001 0.00000000E+000
 3.01641000E-001 1.90000000E-001 0.00000000E+000
 2.98131000E-001 1.90000000E-001 0.00000000E+000
 2.94621000E-001 1.90000000E-001 0.00000000E+000
 2.91111000E-001 1.90000000E-001 0.00000000E+000
 2.87601000E-001 1.90000000E-001 0.00000000E+000
 2.84091000E-001 1.90000000E-001 0.00000000E+000
 2.80581000E-001 1.90000000E-001 0.00000000E+000
 2.77071000E-001 1.90000000E-001 0.00000000E+000
 2.73560000E-001 1.90000000E-001 0.00000000E+000
 2.70050000E-001 1.90000000E-001 0.00000000E+000
 2.66540000E-001 1.90000000E-001 0.00000000E+000
 2.63030000E-001 1.90000000E-001 0.00000000E+000
 2.59520000E-001 1.90000000E-001 0.00000000E+000
 2.56010000E-001 1.90000000E-001 0.00000000E+000
 2.52500000E-001 1.90000000E-001 0.00000000E+000
 2.48990000E-001 1.90000000E-001 0.00000000E+000
 2.48990000E-001 1.91333000E-001 0.00000000E+000
 2.48990000E-001 1.92667000E-001 0.00000000E+000
 2.48990000E-001 1.94000000E-001 0.00000000E+000
 2.48990000E-001 1.95333000E-001 0.00000000E+000
 2.48990000E-001 1.96667000E-001 0.00000000E+000
 2.48990000E-001 1.98000000E-001 0.00000000E+000
 2.48990000E-001 1.99333000E-001 0.00000000E+000
 2.48990000E-001 2.00667000E-001 0.00000000E+000
 2.48990000E-001 2.02000000E-001 0.00000000E+000
 2.48990000E-001 2.03333000E-001 0.00000000E+000
 2.48990000E-001 2.04667000E-001 0.00000000E+000
 2.48990000E-001 2.06000000E-001 0.00000000E+000
 2.48990000E-001 2.07333000E-001 0.00000000E+000
 2.48990000E-001 2.08667000E-001 0.00000000E+000
 2.48990000E-001 2.10000000E-001 0.00000000E+000
 2.52500000E-001 2.10000000E-001 0.00000000E+000
 2.56010000E-001 2.10000000E-001 0.00000000E+000
 2.59520000E-001 2.10000000E-001 0.00000000E+000
 2.63030000E-001 2.10000000E-001 0.00000000E+000
 2.66540000E-001 2.10000000E-001 0.00000000E+000
 2.70050000E-001 2.10000000E-001 0.00000000E+000
 2.73560000E-001 2.10000000E-001 0.00000000E+000
 2.77071000E-001 2.10000000E-001 0.00000000E+000
 2.80581000E-001 2.10000000E-001 0.00000000E+000
 2.84091000E-001 2.10000000E-001 0.00000000E+000
 2.87601000E-001 2.10000000E-001 0.00000000E+000
 2.91111000E-001 2.10000000E-001 0.00000000E+000
 2.94621000E-001 2.10000000E-001 0.00000000E+000
 2.98131000E-001 2.10000000E-001 0.00000000E+000
 3.01641000E-001 2.10000000E-001 0.00000000E+000
 3.05151000E-001 2.10000000E-001 0.00000000E+000
 3.08661000E-001 2.10000000E-001 0.00000000E+000
 3.12172000E-001 2.10000000E-001 0.00000000E+000
 3.15682000E-001 2.10000000E-001 0.00000000E+000
 3.19192000E-001 2.10000000E-001 0.00000000E+000
 3.22702000E-001 2.10000000E-001 0.00000000E+000
 3.26212000E-001 2.10000000E-001 0.00000000E+000
 3.29722000E-001 2.10000000E-001 0.00000000E+000
 3.33232000E-001 2.10000000E-001 0.00000000E+000
 3.36742000E-001 2.10000000E-001 0.00000000E+000
 3.40252000E-001 2.10000000E-001 0.00000000E+000
 3.43763000E-001 2.10000000E-001 0.00000000E+000
 3.47273000E-001 2.10000000E-001 0.00000000E+000
 3.50783000E-001 2.10000000E-001 0.00000000E+000
 3.54293000E-001 2.10000000E-001 0.00000000E+000
 3.57803000E-001 2.10000000E-001 0.00000000E+000
 3.61313000E-001 2.10000000E-001 0.00000000E+000
 3.64823000E-001 2.10000000E-001 0.00000000E+000
 3.68333000E-001 2.10000000E-001 0.00000000E+000
 3.71843000E-001 2.10000000E-001 0.00000000E+000
 3.75353000E-001 2.10000000E-001 0.00000000E+000
 3.78864000E-001 2.10000000E-001 0.00000000E+000
 3.82374000E-001 2.10000000E-001 0.00000000E+000
 3.85884000E-001 2.10000000E-001 0.00000000E+000
 3.89394000E-001 2.10000000E-001 0.00000000E+000
 3.92904000E-001 2.10000000E-001 0.00000000E+000
 3.96414000E-001 2.10000000E-001 0.00000000E+000
 3.99924000E-001 2.10000000E-001 0.00000000E+000
 4.03434000E-001 2.10000000E-001 0.00000000E+000
 4.06944000E-001 2.10000000E-001 0.00000000E+000
 4.10455000E-001 2.10000000E-001 0.00000000E+000
 4.13965000E-001 2.10000000E-001 0.00000000E+000
 4.17475000E-001 2.10000000E-001 0.00000000E+000
 4.20985000E-001 2.10000000E-001 0.00000000E+000
 4.24495000E-001 2.10000000E-001 0.00000000E+000
 4.28005000E-001 2.10000000E-001 0.00000000E+000
 4.31515000E-001 2.10000000E-001 0.00000000E+000
 4.35025000E-001 2.10000000E-001 0.00000000E+000
 4.38535000E-001 2.10000000E-001 0.00000000E+000
 4.42045000E-001 2.10000000E-001 0.00000000E+000
 4.45556000E-001 2.10000000E-001 0.00000000E+000
 4.49066000E-001 2.10000000E-001 0.00000000E+000
 4.52576000E-001 2.10000000E-001 0.00000000E+000
 4.56086000E-001 2.10000000E-001 0.00000000E+000
 4.59596000E-001 2.10000000E-001 0.00000000E+000
 4.63106000E-001 2.10000000E-001 0.00000000E+000
 4.66616000E-001 2.10000000E-001 0.00000000E+000
 4.70126000E-001 2.10000000E-001 0.00000000E+000
 4.73636000E-001 2.10000000E-001 0.00000000E+000
 4.77146000E-001 2.10000000E-001 0.00000000E+000
 4.80657000E-001 2.10000000E-001 0.00000000E+000
 4.84167000E-001 2.10000000E-001 0.00000000E+000
 4.87677000E-001 2.10000000E-001 0.00000000E+000
 4.91187000E-001 2.10000000E-001 0.00000000E+000
 4.94697000E-001 2.10000000E-001 0.00000000E+000
[...]
POINT_DATA 3232
VECTORS DISP double
  1.8073000E-004  6.7015900E-003  9.9601000E-005
  1.2279900E-004  6.7007700E-003  9.9513800E-005
  6.1108900E-005  6.7024400E-003  9.9248700E-005
  1.5620100E-006  6.7036500E-003  9.8845600E-005
 -5.8921300E-005  6.7051100E-003  9.8344000E-005
 -1.1876300E-004  6.7064800E-003  9.7759500E-005
 -1.7885300E-004  6.7079000E-003  9.7118900E-005
 -2.3878000E-004  6.7092800E-003  9.6444100E-005
 -2.9877200E-004  6.7106700E-003  9.5763500E-005
 -3.5866600E-004  6.7120200E-003  9.5102900E-005
 -4.1863300E-004  6.7133700E-003  9.4487600E-005
 -4.7859400E-004  6.7147000E-003  9.3943200E-005
 -5.3848000E-004  6.7160200E-003  9.3491800E-005
 -5.9854000E-004  6.7173500E-003  9.3152200E-005
 -6.5834100E-004  6.7186500E-003  9.2938200E-005
 -7.1859400E-004  6.7200400E-003  9.2863500E-005
 -7.1532700E-004  6.8776000E-003  9.2827300E-005
 -7.1252600E-004  7.0354100E-003  9.2705500E-005
 -7.0939900E-004  7.1930800E-003  9.2485000E-005
 -7.0635700E-004  7.3507700E-003  9.2159900E-005
 -7.0300800E-004  7.5083100E-003  9.1719200E-005
 -6.9944700E-004  7.6657800E-003  9.1155200E-005
 -6.9542700E-004  7.8229000E-003  9.0461200E-005
 -6.9089900E-004  7.9796900E-003  8.9634400E-005
 -6.8570700E-004  8.1356800E-003  8.8675100E-005
 -6.7974500E-004  8.2908700E-003  8.7586200E-005
 -6.7292600E-004  8.4446400E-003  8.6374700E-005
 -6.6512300E-004  8.5969000E-003  8.5049000E-005
 -6.5630400E-004  8.7470000E-003  8.3621000E-005
 -6.4634700E-004  8.8947000E-003  8.2103900E-005
 -6.3526000E-004  9.0393800E-003  8.0513000E-005
 -6.2294200E-004  9.1806400E-003  7.8865100E-005
 -6.0942900E-004  9.3179500E-003  7.7177700E-005
 -5.9466000E-004  9.4507600E-003  7.5469500E-005
 -5.7867800E-004  9.5786500E-003  7.3758900E-005
 -5.6147300E-004  9.7009500E-003  7.2065300E-005
 -5.4308900E-004  9.8173200E-003  7.0406700E-005
 -5.2356400E-004  9.9270800E-003  6.8801800E-005
 -5.0293800E-004  1.0029900E-002  6.7267400E-005
 -4.8128700E-004  1.0125200E-002  6.5820100E-005
 -4.5865400E-004  1.0212700E-002  6.4474600E-005
 -4.3513900E-004  1.0291900E-002  6.3244400E-005
 -4.1079200E-004  1.0362300E-002  6.2141600E-005
 -3.8571700E-004  1.0423800E-002  6.1176000E-005
 -3.5997900E-004  1.0475900E-002  6.0356500E-005
 -3.3367300E-004  1.0518500E-002  5.9688800E-005
 -3.0688300E-004  1.0551200E-002  5.9178400E-005
 -2.7968200E-004  1.0574000E-002  5.8827300E-005
 -2.5217500E-004  1.0586600E-002  5.8637100E-005
 -2.2441000E-004  1.0589100E-002  5.8606500E-005
 -1.9650200E-004  1.0581200E-002  5.8733400E-005
 -1.6848300E-004  1.0562900E-002  5.9013600E-005
 -1.4046700E-004  1.0534500E-002  5.9441700E-005
 -1.1247700E-004  1.0495600E-002  6.0011200E-005
 -8.4610600E-005  1.0446700E-002  6.0713800E-005
 -5.6900200E-005  1.0387500E-002  6.1541500E-005
 -2.9407800E-005  1.0318600E-002  6.2483700E-005
 -2.1892300E-006  1.0239800E-002  6.3531300E-005
  2.4735700E-005  1.0151400E-002  6.4672600E-005
  5.1287900E-005  1.0053600E-002  6.5897500E-005
  7.7482700E-005  9.9467200E-003  6.7194200E-005
  1.0322800E-004  9.8309300E-003  6.8551900E-005
  1.2855800E-004  9.7064200E-003  6.9959600E-005
  1.5338500E-004  9.5736800E-003  7.1406100E-005
  1.7773900E-004  9.4326800E-003  7.2881700E-005
  2.0156100E-004  9.2841200E-003  7.4375300E-005
  2.2484600E-004  9.1278600E-003  7.5878700E-005
  2.4759000E-004  8.9646300E-003  7.7381800E-005
  2.6973500E-004  8.7944000E-003  7.8877600E-005
  2.9133100E-004  8.6177400E-003  8.0357700E-005
  3.1227600E-004  8.4348400E-003  8.1816000E-005
  3.3265800E-004  8.2460200E-003  8.3246100E-005
  3.5234500E-004  8.0517700E-003  8.4642800E-005
  3.7144200E-004  7.8520900E-003  8.6002000E-005
  3.8981300E-004  7.6477900E-003  8.7319000E-005
  4.0754500E-004  7.4386100E-003  8.8591900E-005
  4.2452800E-004  7.2255300E-003  8.9816800E-005
  4.4080500E-004  7.0082300E-003  9.0993300E-005
  4.5630800E-004  6.7876700E-003  9.2118700E-005
  4.7103000E-004  6.5636400E-003  9.3193200E-005
  4.8493500E-004  6.3369100E-003  9.4215700E-005
  4.9798400E-004  6.1075400E-003  9.5186400E-005
  5.1014300E-004  5.8760300E-003  9.6105500E-005
  5.2137900E-004  5.6427100E-003  9.6972600E-005
  5.3161800E-004  5.4078700E-003  9.7789200E-005
  5.4087300E-004  5.1720200E-003  9.8554100E-005
  5.4899100E-004  4.9353800E-003  9.9269200E-005
  5.5606500E-004  4.6984700E-003  9.9932500E-005
  5.6183400E-004  4.4616600E-003  1.0054500E-004
  5.6649300E-004  4.2252100E-003  1.0110500E-004
  5.6966700E-004  3.9899300E-003  1.0161100E-004
  5.7164100E-004  3.7556400E-003  1.0206000E-004
  5.7194700E-004  3.5236700E-003  1.0244800E-004
  5.7094300E-004  3.2933400E-003  1.0277100E-004
  5.6808600E-004  3.0665700E-003  1.0302000E-004
  5.6378500E-004  2.8421900E-003  1.0318700E-004
  5.5745000E-004  2.6226200E-003  1.0325900E-004
  5.4951800E-004  2.4063300E-003  1.0322200E-004
  5.3937200E-004  2.1961300E-003  1.0305600E-004
  5.2746700E-004  1.9902200E-003  1.0273600E-004
  5.1316900E-004  1.7917700E-003  1.0223300E-004
  4.9694000E-004  1.5986700E-003  1.0150800E-004
  4.7816000E-004  1.4145900E-003  1.0051600E-004
  4.5724800E-004  1.2368800E-003  9.9194000E-005
  4.3368600E-004  1.0700200E-003  9.7475300E-005
  4.0771700E-004  9.1042500E-004  9.5262900E-005
  3.7914200E-004  7.6394300E-004  9.2452900E-005
  3.4770500E-004  6.2531000E-004  8.8896000E-005
  3.1401600E-004  5.0267400E-004  8.4432100E-005
  2.7661100E-004  3.8793900E-004  7.8827500E-005
  2.3794800E-004  2.9306800E-004  7.1835600E-005
  1.9382900E-004  2.0509800E-004  6.3077000E-005
  1.5105500E-004  1.4295300E-004  5.2178500E-005
  9.9558400E-005  8.3430900E-005  3.8494600E-005
  5.8472200E-005  6.0183500E-005  2.1591100E-005
  0.0000000E+000  0.0000000E+000  0.0000000E+000
  0.0000000E+000  0.0000000E+000  0.0000000E+000
  0.0000000E+000  0.0000000E+000  0.0000000E+000
  0.0000000E+000  0.0000000E+000  0.0000000E+000
  0.0000000E+000  0.0000000E+000  0.0000000E+000
  0.0000000E+000  0.0000000E+000  0.0000000E+000
  0.0000000E+000  0.0000000E+000  0.0000000E+000
  0.0000000E+000  0.0000000E+000  0.0000000E+000
  0.0000000E+000  0.0000000E+000  0.0000000E+000
  0.0000000E+000  0.0000000E+000  0.0000000E+000
  0.0000000E+000  0.0000000E+000  0.0000000E+000
  0.0000000E+000  0.0000000E+000  0.0000000E+000
  0.0000000E+000  0.0000000E+000  0.0000000E+000
  0.0000000E+000  0.0000000E+000  0.0000000E+000
  0.0000000E+000  0.0000000E+000  0.0000000E+000
  0.0000000E+000  0.0000000E+000  0.0000000E+000
 -5.9631300E-005  6.1626100E-005 -1.0164700E-005
 -9.9685900E-005  8.3491200E-005 -1.6078000E-005
 -1.5203100E-004  1.4216800E-004 -1.9178500E-005
 -1.9526400E-004  2.0246600E-004 -1.9863100E-005
 -2.4089700E-004  2.8901900E-004 -1.8771600E-005
 -2.8136500E-004  3.8145100E-004 -1.6265200E-005
 -3.2151100E-004  4.9449300E-004 -1.2717100E-005
 -3.5853300E-004  6.1428200E-004 -8.3679200E-006
 -3.9421800E-004  7.5109900E-004 -3.4432700E-006
 -4.2778300E-004  8.9458000E-004  1.9005100E-006
 -4.5961000E-004  1.0523000E-003  7.5233200E-006
 -4.8984300E-004  1.2162600E-003  1.3324400E-005
 -5.1821500E-004  1.3920500E-003  1.9216100E-005
 -5.4527700E-004  1.5735500E-003  2.5135200E-005
 -5.7048800E-004  1.7647100E-003  3.1026600E-005
 -5.9453900E-004  1.9610000E-003  3.6852200E-005
 -6.1681600E-004  2.1650000E-003  4.2578000E-005
 -6.3800100E-004  2.3735200E-003  4.8182800E-005
 -6.5752100E-004  2.5880300E-003  5.3645600E-005
 -6.7596500E-004  2.8063500E-003  5.8956900E-005
 -6.9286900E-004  3.0292000E-003  6.4104400E-005
 -7.0867800E-004  3.2550400E-003  6.9085500E-005
 -7.2306900E-004  3.4842400E-003  7.3894600E-005
 -7.3633900E-004  3.7154900E-003  7.8532800E-005
 -7.4829000E-004  3.9491400E-003  8.2999600E-005
 -7.5910100E-004  4.1838700E-003  8.7298000E-005
 -7.6865900E-004  4.4201700E-003  9.1430900E-005
 -7.7707200E-004  4.6565800E-003  9.5402200E-005
 -7.8426700E-004  4.8937900E-003  9.9217600E-005
 -7.9032500E-004  5.1302500E-003  1.0288100E-004
 -7.9516700E-004  5.3667100E-003  1.0639900E-004
 -7.9889100E-004  5.6017000E-003  1.0977700E-004
 -8.0138200E-004  5.8358000E-003  1.1302200E-004
 -8.0277000E-004  6.0678600E-003  1.1613800E-004
 -8.0290300E-004  6.2981000E-003  1.1913300E-004
 -8.0193300E-004  6.5257800E-003  1.2201100E-004
 -7.9969300E-004  6.7507400E-003  1.2477800E-004
 -7.9633100E-004  6.9726300E-003  1.2744000E-004
 -7.9169600E-004  7.1909300E-003  1.2999900E-004
 -7.8590000E-004  7.4056000E-003  1.3246300E-004
 -7.7884200E-004  7.6159100E-003  1.3483300E-004
 -7.7057400E-004  7.8219400E-003  1.3711300E-004
 -7.6106100E-004  8.0229700E-003  1.3930500E-004
 -7.5029600E-004  8.2189500E-003  1.4141300E-004
 -7.3830100E-004  8.4093700E-003  1.4343600E-004
 -7.2503100E-004  8.5939300E-003  1.4537500E-004
 -7.1054200E-004  8.7724100E-003  1.4723100E-004
 -6.9478300E-004  8.9442200E-003  1.4900100E-004
 -6.7781600E-004  9.1093900E-003  1.5068500E-004
 -6.5961800E-004  9.2671600E-003  1.5228000E-004
 -6.4022800E-004  9.4176900E-003  1.5378200E-004
 -6.1967700E-004  9.5601700E-003  1.5518800E-004
 -5.9797200E-004  9.6947400E-003  1.5649200E-004
 -5.7520000E-004  9.8207400E-003  1.5769000E-004
 -5.5134700E-004  9.9381200E-003  1.5877500E-004
 -5.2654300E-004  1.0046500E-002  1.5974200E-004
 -5.0077500E-004  1.0145600E-002  1.6058200E-004
 -4.7419000E-004  1.0235300E-002  1.6129000E-004
 -4.4680400E-004  1.0315200E-002  1.6185700E-004
 -4.1875700E-004  1.0385300E-002  1.6227600E-004
 -3.9011800E-004  1.0445200E-002  1.6253900E-004
 -3.6099600E-004  1.0495000E-002  1.6264000E-004
 -3.3152400E-004  1.0534300E-002  1.6257000E-004
 -3.0178200E-004  1.0563300E-002  1.6232600E-004
 -2.7194600E-004  1.0581800E-002  1.6190000E-004
 -2.4208900E-004  1.0589800E-002  1.6128800E-004
 -2.1240100E-004  1.0587300E-002  1.6048700E-004
 -1.8296800E-004  1.0574400E-002  1.5949400E-004
 -1.5396100E-004  1.0551300E-002  1.5831100E-004
 -1.2550300E-004  1.0517900E-002  1.5693600E-004
 -9.7714900E-005  1.0474800E-002  1.5537500E-004
 -7.0766000E-005  1.0421700E-002  1.5363000E-004
 -4.4717700E-005  1.0359400E-002  1.5171200E-004
 -1.9769100E-005  1.0287800E-002  1.4962700E-004
  4.0653000E-006  1.0207500E-002  1.4738800E-004
  2.6587900E-005  1.0118900E-002  1.4500900E-004
  4.7810700E-005  1.0022200E-002  1.4250600E-004
  6.7566400E-005  9.9182400E-003  1.3989600E-004
  8.5881500E-005  9.8070000E-003  1.3719900E-004
  1.0263700E-004  9.6895200E-003  1.3443800E-004
  1.1787000E-004  9.5657400E-003  1.3163500E-004
  1.3151200E-004  9.4368200E-003  1.2881500E-004
  1.4362000E-004  9.3026300E-003  1.2600200E-004
  1.5416500E-004  9.1644000E-003  1.2322300E-004
  1.6323900E-004  9.0219000E-003  1.2050400E-004
  1.7083700E-004  8.8764900E-003  1.1786900E-004
  1.7709500E-004  8.7277200E-003  1.1534500E-004
  1.8202100E-004  8.5771200E-003  1.1295300E-004
  1.8579600E-004  8.4239200E-003  1.1071800E-004
  1.8843000E-004  8.2699600E-003  1.0865700E-004
  1.9015000E-004  8.1139100E-003  1.0678900E-004
  1.9094000E-004  7.9580900E-003  1.0512600E-004
  1.9110700E-004  7.8004400E-003  1.0368100E-004
  1.9052100E-004  7.6439600E-003  1.0245800E-004
  1.8968400E-004  7.4855000E-003  1.0146400E-004
  1.8813900E-004  7.3292800E-003  1.0069100E-004
  1.8691200E-004  7.1703000E-003  1.0014000E-004
  1.8465200E-004  7.0150700E-003  9.9788800E-005
  1.8397100E-004  6.8550900E-003  9.9626100E-005
  1.2326000E-004  6.8586900E-003  9.9543500E-005
  1.2543600E-004  7.0151300E-003  9.9705000E-005
  1.2694800E-004  7.1732800E-003  1.0005200E-004
  1.2853200E-004  7.3299700E-003  1.0059500E-004
  1.2993100E-004  7.4882200E-003  1.0135400E-004
  1.3089100E-004  7.6451400E-003  1.0233000E-004
  1.3159900E-004  7.8031100E-003  1.0352800E-004
  1.3161700E-004  7.9597300E-003  1.0494400E-004
  1.3116700E-004  8.1167100E-003  1.0657300E-004
  1.2983400E-004  8.2720600E-003  1.0840300E-004
  1.2778700E-004  8.4269600E-003  1.1042200E-004
  1.2468700E-004  8.5797300E-003  1.1261200E-004
  1.2064400E-004  8.7310900E-003  1.1495400E-004
  1.1540500E-004  8.8796000E-003  1.1742600E-004
  1.0903100E-004  9.0256800E-003  1.2000600E-004
  1.0135700E-004  9.1680300E-003  1.2266900E-004
  9.2408000E-005  9.3068400E-003  1.2539000E-004
  8.2096400E-005  9.4409500E-003  1.2814400E-004
  7.0438700E-005  9.5704000E-003  1.3090600E-004
  5.7397300E-005  9.6941300E-003  1.3365000E-004
  4.3011800E-005  9.8120700E-003  1.3635400E-004
  2.7266100E-005  9.9233100E-003  1.3899500E-004
  1.0246000E-005  1.0027700E-002  1.4155100E-004
 -8.0587900E-006  1.0124400E-002  1.4400400E-004
 -2.7515700E-005  1.0213300E-002  1.4633400E-004
 -4.8124400E-005  1.0293700E-002  1.4852800E-004
 -6.9724900E-005  1.0365400E-002  1.5057200E-004
 -9.2289600E-005  1.0427900E-002  1.5245400E-004
 -1.1566300E-004  1.0481000E-002  1.5416500E-004
 -1.3976600E-004  1.0524400E-002  1.5569800E-004
 -1.6448200E-004  1.0557700E-002  1.5704800E-004
 -1.8966200E-004  1.0581000E-002  1.5821300E-004
 -2.1524500E-004  1.0593900E-002  1.5919000E-004
 -2.4102700E-004  1.0596400E-002  1.5998100E-004
 -2.6698600E-004  1.0588400E-002  1.6058700E-004
 -2.9289400E-004  1.0570000E-002  1.6101200E-004
 -3.1874400E-004  1.0541000E-002  1.6125900E-004
 -3.4432500E-004  1.0501600E-002  1.6133500E-004
 -3.6961000E-004  1.0451900E-002  1.6124500E-004
 -3.9444300E-004  1.0391900E-002  1.6099600E-004
 -4.1875400E-004  1.0321900E-002  1.6059600E-004
 -4.4246200E-004  1.0241800E-002  1.6005000E-004
 -4.6544800E-004  1.0152200E-002  1.5936600E-004
 -4.8770200E-004  1.0053000E-002  1.5855300E-004
 -5.0907700E-004  9.9445600E-003  1.5761600E-004
 -5.2960600E-004  9.8271500E-003  1.5656200E-004
 -5.4914500E-004  9.7010000E-003  1.5539800E-004
 -5.6773600E-004  9.5664900E-003  1.5412900E-004
 -5.8527200E-004  9.4237700E-003  1.5276000E-004
 -6.0177100E-004  9.2733400E-003  1.5129600E-004
 -6.1718900E-004  9.1153100E-003  1.4974100E-004
 -6.3149500E-004  8.9502100E-003  1.4809800E-004
 -6.4472000E-004  8.7781700E-003  1.4636900E-004
 -6.5678300E-004  8.5996900E-003  1.4455600E-004
 -6.6777400E-004  8.4149900E-003  1.4266000E-004
 -6.7758200E-004  8.2244500E-003  1.4068100E-004
 -6.8632500E-004  8.0284200E-003  1.3861800E-004
 -6.9389600E-004  7.8271700E-003  1.3647000E-004
 -7.0039700E-004  7.6211500E-003  1.3423500E-004
 -7.0576300E-004  7.4105600E-003  1.3191100E-004
 -7.1004600E-004  7.1958900E-003  1.2949400E-004
 -7.1324700E-004  6.9773400E-003  1.2698100E-004
 -7.1534900E-004  6.7553500E-003  1.2436800E-004
 -7.1641900E-004  6.5302500E-003  1.2164900E-004
 -7.1638500E-004  6.3023000E-003  1.1882000E-004
 -7.1535100E-004  6.0720400E-003  1.1587500E-004
 -7.1322600E-004  5.8395300E-003  1.1280900E-004
 -7.1010600E-004  5.6055500E-003  1.0961600E-004
 -7.0592600E-004  5.3699400E-003  1.0629000E-004
 -7.0073100E-004  5.1336900E-003  1.0282600E-004
 -6.9452100E-004  4.8965000E-003  9.9216700E-005
 -6.8725300E-004  4.6595000E-003  9.5457700E-005
 -6.7901500E-004  4.4223200E-003  9.1543600E-005
 -6.6967600E-004  4.1861700E-003  8.7469600E-005
 -6.5939000E-004  3.9506800E-003  8.3231500E-005
 -6.4797000E-004  3.7171000E-003  7.8826200E-005
 -6.3559600E-004  3.4850600E-003  7.4251400E-005
 -6.2207300E-004  3.2559000E-003  6.9506300E-005
 -6.0755200E-004  3.0291600E-003  6.4591700E-005
 -5.9188800E-004  2.8064200E-003  5.9510600E-005
 -5.7514300E-004  2.5869700E-003  5.4268300E-005
 -5.5727800E-004  2.3728000E-003  4.8873600E-005
 -5.3821600E-004  2.1627500E-003  4.3338900E-005
 -5.1806400E-004  1.9594700E-003  3.7681800E-005
 -4.9656500E-004  1.7610800E-003  3.1925500E-005
 -4.7402100E-004  1.5711900E-003  2.6100800E-005
 -4.4992200E-004  1.3868800E-003  2.0247500E-005
 -4.2487500E-004  1.2130500E-003  1.4416400E-005
 -3.9794500E-004  1.0454200E-003  8.6726700E-006
 -3.7029500E-004  8.9051600E-004  3.0979100E-006
 -3.4018800E-004  7.4232400E-004 -2.2042300E-006
 -3.0989200E-004  6.0945000E-004 -7.1041800E-006
 -2.7606500E-004  4.8354300E-004 -1.1439400E-005
 -2.4322600E-004  3.7609500E-004 -1.5004300E-005
 -2.0477900E-004  2.7541400E-004 -1.7545000E-005
 -1.6986100E-004  1.9716100E-004 -1.8730100E-005
 -1.2535100E-004  1.2508000E-004 -1.8172400E-005
 -9.0153900E-005  7.9761600E-005 -1.5329500E-005
 -3.8445500E-005  4.0284300E-005 -9.7514400E-006
  6.4184600E-005  6.8600500E-003  9.9294600E-005
  6.5278300E-005  7.0171200E-003  9.9461800E-005
  6.7375700E-005  7.1745700E-003  9.9795700E-005
  6.8839800E-005  7.3321200E-003  1.0031400E-004
  7.0270400E-005  7.4896200E-003  1.0103100E-004
  7.1470700E-005  7.6474100E-003  1.0195300E-004
  7.2176500E-005  7.8047400E-003  1.0308300E-004
  7.2629200E-005  7.9621500E-003  1.0441700E-004
  7.2347400E-005  8.1186400E-003  1.0595100E-004
  7.1641300E-005  8.2746900E-003  1.0767300E-004
  7.0035400E-005  8.4292400E-003  1.0957200E-004
  6.7798900E-005  8.5826200E-003  1.1163200E-004
  6.4533400E-005  8.7337600E-003  1.1383300E-004
  6.0442800E-005  8.8828100E-003  1.1615700E-004
  5.5225800E-005  9.0287500E-003  1.1858200E-004
  4.9025600E-005  9.1715700E-003  1.2108400E-004
  4.1633600E-005  9.3103200E-003  1.2364100E-004
  3.3154200E-005  9.4448500E-003  1.2622900E-004
  2.3449100E-005  9.5742700E-003  1.2882400E-004
  1.2617600E-005  9.6983600E-003  1.3140300E-004
  5.5967400E-007  9.8163200E-003  1.3394500E-004
 -1.2598600E-005  9.9278500E-003  1.3642700E-004
 -2.6944300E-005  1.0032300E-002  1.3883100E-004
 -4.2309800E-005  1.0129200E-002  1.4113900E-004
 -5.8775100E-005  1.0218200E-002  1.4333300E-004
 -7.6141800E-005  1.0298800E-002  1.4539900E-004
 -9.4464700E-005  1.0370500E-002  1.4732600E-004
 -1.1355000E-004  1.0433200E-002  1.4910300E-004
 -1.3339600E-004  1.0486300E-002  1.5072000E-004
 -1.5385200E-004  1.0529700E-002  1.5217200E-004
 -1.7483500E-004  1.0563200E-002  1.5345400E-004
 -1.9626600E-004  1.0586500E-002  1.5456300E-004
 -2.1797500E-004  1.0599500E-002  1.5549700E-004
 -2.3995200E-004  1.0602000E-002  1.5625900E-004
 -2.6196900E-004  1.0594100E-002  1.5684800E-004
 -2.8405500E-004  1.0575700E-002  1.5726800E-004
 -3.0597400E-004  1.0546700E-002  1.5752300E-004
 -3.2774600E-004  1.0507300E-002  1.5761900E-004
 -3.4918100E-004  1.0457600E-002  1.5755900E-004
 -3.7025100E-004  1.0397600E-002  1.5735100E-004
 -3.9084800E-004  1.0327500E-002  1.5700100E-004
 -4.1087600E-004  1.0247500E-002  1.5651500E-004
 -4.3032000E-004  1.0157800E-002  1.5590000E-004
 -4.4902400E-004  1.0058600E-002  1.5516200E-004
 -4.6704200E-004  9.9501300E-003  1.5430900E-004
 -4.8419900E-004  9.8326800E-003  1.5334400E-004
 -5.0057200E-004  9.7065200E-003  1.5227600E-004
 -5.1601100E-004  9.5719200E-003  1.5110700E-004
 -5.3057300E-004  9.4292100E-003  1.4984400E-004
 -5.4417300E-004  9.2786600E-003  1.4848900E-004
 -5.5680900E-004  9.1206400E-003  1.4704700E-004
 -5.6848700E-004  8.9554200E-003  1.4551900E-004
 -5.7913500E-004  8.7833700E-003  1.4390900E-004
 -5.8884000E-004  8.6047800E-003  1.4221700E-004
 -5.9748000E-004  8.4200400E-003  1.4044300E-004
 -6.0518500E-004  8.2294100E-003  1.3858900E-004
 -6.1182800E-004  8.0332900E-003  1.3665200E-004
 -6.1753100E-004  7.8319700E-003  1.3463300E-004
 -6.2221000E-004  7.6258400E-003  1.3252800E-004
 -6.2592800E-004  7.4151800E-003  1.3033400E-004
 -6.2868400E-004  7.2003800E-003  1.2805000E-004
 -6.3045100E-004  6.9817200E-003  1.2567100E-004
 -6.3132200E-004  6.7596400E-003  1.2319300E-004
 -6.3118600E-004  6.5343500E-003  1.2061200E-004
 -6.3020700E-004  6.3063500E-003  1.1792300E-004
 -6.2822400E-004  6.0758100E-003  1.1512000E-004
 -6.2542000E-004  5.8433100E-003  1.1219900E-004
 -6.2164200E-004  5.6089400E-003  1.0915300E-004
 -6.1703600E-004  5.3733800E-003  1.0597700E-004
 -6.1150600E-004  5.1366600E-003  1.0266600E-004
 -6.0511800E-004  4.8995500E-003  9.9213200E-005
 -5.9786100E-004  4.6619900E-003  9.5614500E-005
 -5.8971400E-004  4.4249000E-003  9.1864200E-005
 -5.8073300E-004  4.1881200E-003  8.7958200E-005
 -5.7084600E-004  3.9527200E-003  8.3892000E-005
 -5.6012600E-004  3.7184300E-003  7.9662700E-005
 -5.4851500E-004  3.4865000E-003  7.5268000E-005
 -5.3602200E-004  3.2565100E-003  7.0707000E-005