# vtk DataFile Version 3.0
MMH: CalculiX output 'object.frd' file to 'vtk' format
ASCII
DATASET UNSTRUCTURED_GRID
POINTS 3232 double
 6.00000000E-001 2.10000000E-001 0.00000000E+000
 6.00000000E-001 2.08667000E-001 0.00000000E+000
 6.00000000E-001 2.07333000E-001 0.00000000E+000
 6.00000000E-001 2.06000000E-001 0.00000000E+000
 6.00000000E-001 2.04667000E-001 0.00000000E+000
 6.00000000E-001 2.03333000E-001 0.00000000E+000
 6.00000000E-001 2.02000000E-001 0.00000000E+000
 6.00000000E-001 2.00667000E-001 0.00000000E+000
 6.00000000E-001 1.99333000E-001 0.00000000E+000
 6.00000000E-001 1.98000000E-001 0.00000000E+000
 6.00000000E-001 1.96667000E-001 0.00000000E+000
 6.00000000E-001 1.95333000E-001 0.00000000E+000
 6.00000000E-001 1.94000000E-001 0.00000000E+000
 6.00000000E-001 1.92667000E-001 0.00000000E+000
 6.00000000E-001 1.91333000E-001 0.00000000E+000
 6.00000000E-001 1.90000000E-001 0.00000000E+000
 5.96490000E-001 1.90000000E-001 0.00000000E+000
 5.92980000E-001 1.90000000E-001 0.00000000E+000
 5.89470000E-001 1.90000000E-001 0.00000000E+000
 5.85960000E-001 1.90000000E-001 0.00000000E+000
 5.82449000E-001 1.90000000E-001 0.00000000E+000
 5.78939000E-001 1.90000000E-001 0.00000000E+000
 5.75429000E-001 1.90000000E-001 0.00000000E+000
 5.71919000E-001 1.90000000E-001 0.00000000E+000
 5.68409000E-001 1.90000000E-001 0.00000000E+000
 5.64899000E-001 1.90000000E-001 0.00000000E+000
 5.61389000E-001 1.90000000E-001 0.00000000E+000
 5.57879000E-001 1.90000000E-001 0.00000000E+000
 5.54369000E-001 1.90000000E-001 0.00000000E+000
 5.50859000E-001 1.90000000E-001 0.00000000E+000
 5.47348000E-001 1.90000000E-001 0.00000000E+000
 5.43838000E-001 1.90000000E-001 0.00000000E+000
 5.40328000E-001 1.90000000E-001 0.00000000E+000
 5.36818000E-001 1.90000000E-001 0.00000000E+000
 5.33308000E-001 1.90000000E-001 0.00000000E+000
 5.29798000E-001 1.90000000E-001 0.00000000E+000
 5.26288000E-001 1.90000000E-001 0.00000000E+000
 5.22778000E-001 1.90000000E-001 0.00000000E+000
 5.19268000E-001 1.90000000E-001 0.00000000E+000
 5.15758000E-001 1.90000000E-001 0.00000000E+000
 5.12247000E-001 1.90000000E-001 0.00000000E+000
 5.08737000E-001 1.90000000E-001 0.00000000E+000
 5.05227000E-001 1.90000000E-001 0.00000000E+000
 5.01717000E-001 1.90000000E-001 0.00000000E+000
 4.98207000E-001 1.90000000E-001 0.00000000E+000
 4.94697000E-001 1.90000000E-001 0.00000000E+000
 4.91187000E-001 1.90000000E-001 0.00000000E+000
 4.87677000E-001 1.90000000E-001 0.00000000E+000
 4.84167000E-001 1.90000000E-001 0.00000000E+000
 4.80657000E-001 1.90000000E-001 0.00000000E+000
 4.77146000E-001 1.90000000E-001 0.00000000E+000
 4.73636000E-001 1.90000000E-001 0.00000000E+000
 4.70126000E-001 1.90000000E-001 0.00000000E+000
 4.66616000E-001 1.90000000E-001 0.00000000E+000
 4.63106000E-001 1.90000000E-001 0.00000000E+000
 4.59596000E-001 1.90000000E-001 0.00000000E+000
 4.56086000E-001 1.90000000E-001 0.00000000E+000
 4.52576000E-001 1.90000000E-001 0.00000000E+000
 4.49066000E-001 1.90000000E-001 0.00000000E+000
 4.45556000E-001 1.90000000E-001 0.00000000E+000
 4.42045000E-001 1.90000000E-001 0.00000000E+000
 4.38535000E-001 1.90000000E-001 0.00000000E+000
 4.35025000E-001 1.90000000E-001 0.00000000E+000
 4.31515000E-001 1.90000000E-001 0.00000000E+000
 4.28005000E-001 1.90000000E-001 0.00000000E+000
 4.24495000E-001 1.90000000E-001 0.00000000E+000
 4.20985000E-001 1.90000000E-001 0.00000000E+000
 4.17475000E-001 1.90000000E-001 0.00000000E+000
 4.13965000E-001 1.90000000E-001 0.00000000E+000
 4.10455000E-001 1.90000000E-001 0.00000000E+000
 4.06944000E-001 1.90000000E-001 0.00000000E+000
 4.03434000E-001 1.90000000E-001 0.00000000E+000
 3.99924000E-001 1.90000000E-001 0.00000000E+000
 3.96414000E-001 1.90000000E-001 0.00000000E+000
 3.92904000E-001 1.90000000E-001 0.00000000E+000
 3.89394000E-001 1.90000000E-001 0.00000000E+000
 3.85884000E-001 1.90000000E-001 0.00000000E+000
 3.82374000E-001 1.90000000E-001 0.00000000E+000
 3.78864000E-001 1.90000000E-001 0.00000000E+000
 3.75353000E-001 1.90000000E-001 0.00000000E+000
 3.71843000E-001 1.90000000E-001 0.00000000E+000
 3.68333000E-001 1.90000000E-001 0.00000000E+000
 3.64823000E-001 1.90000000E-001 0.00000000E+000
 3.61313000E-001 1.90000000E-001 0.00000000E+000
 3.57803000E-001 1.90000000E-001 0.00000000E+000
 3.54293000E-001 1.90000000E-001 0.00000000E+000
 3.50783000E-001 1.90000000E-001 0.00000000E+000
 3.47273000E-001 1.90000000E-001 0.00000000E+000
 3.43763000E-001 1.90000000E-001 0.00000000E+000
 3.40252000E-001 1.90000000E-001 0.00000000E+000
 3.36742000E-001 1.90000000E-001 0.00000000E+000
 3.33232000E-001 1.90000000E-001 0.00000000E+000
 3.29722000E-001 1.90000000E-001 0.00000000E+000
 3.26212000E-001 1.90000000E-001 0.00000000E+000
 3.22702000E-001 1.90000000E-001 0.00000000E+000
 3.19192000E-001 1.90000000E-001 0.00000000E+000
 3.15682000E-001 1.90000000E-001 0.00000000E+000
 3.12172000E-001 1.90000000E-001 0.00000000E+000
 3.08661000E-001 1.90000000E-001 0.00000000E+000
 3.05151000E-001 1.90000000E-001 0.00000000E+000
 3.01641000E-001 1.90000000E-001 0.00000000E+000
 2.98131000E-001 1.90000000E-001 0.00000000E+000
 2.94621000E-001 1.90000000E-001 0.00000000E+000
 2.91111000E-001 1.90000000E-001 0.00000000E+000
 2.87601000E-001 1.90000000E-001 0.00000000E+000
 2.84091000E-001 1.90000000E-001 0.00000000E+000
 2.80581000E-001 1.90000000E-001 0.00000000E+000
 2.77071000E-001 1.90000000E-001 0.00000000E+000
 2.73560000E-001 1.90000000E-001 0.00000000E+000
 2.70050000E-001 1.90000000E-001 0.00000000E+000
 2.66540000E-001 1.90000000E-001 0.00000000E+000
 2.63030000E-001 1.90000000E-001 0.00000000E+000
 2.59520000E-001 1.90000000E-001 0.00000000E+000
 2.56010000E-001 1.90000000E-001 0.00000000E+000
 2.52500000E-001 1.90000000E-001 0.00000000E+000
 2.48990000E-001 1.90000000E-001 0.00000000E+000
 2.48990000E-001 1.91333000E-001 0.00000000E+000
 2.48990000E-001 1.92667000E-001 0.00000000E+000
 2.48990000E-001 1.94000000E-001 0.00000000E+000
 2.48990000E-001 1.95333000E-001 0.00000000E+000
 2.48990000E-001 1.96667000E-001 0.00000000E+000
 2.48990000E-001 1.98000000E-001 0.00000000E+000
 2.48990000E-001 1.99333000E-001 0.00000000E+000
 2.48990000E-001 2.00667000E-001 0.00000000E+000
 2.48990000E-001 2.02000000E-001 0.00000000E+000
 2.48990000E-001 2.03333000E-001 0.00000000E+000
 2.48990000E-001 2.04667000E-001 0.00000000E+000
 2.48990000E-001 2.06000000E-001 0.00000000E+000
 2.48990000E-001 2.07333000E-001 0.00000000E+000
 2.48990000E-001 2.08667000E-001 0.00000000E+000
 2.48990000E-001 2.10000000E-001 0.00000000E+000
 2.52500000E-001 2.10000000E-001 0.00000000E+000
 2.56010000E-001 2.10000000E-001 0.00000000E+000
 2.59520000E-001 2.10000000E-001 0.00000000E+000
 2.63030000E-001 2.10000000E-001 0.00000000E+000
 2.66540000E-001 2.10000000E-001 0.00000000E+000
 2.70050000E-001 2.10000000E-001 0.00000000E+000
 2.73560000E-001 2.10000000E-001 0.00000000E+000
 2.77071000E-001 2.10000000E-001 0.00000000E+000
 2.80581000E-001 2.10000000E-001 0.00000000E+000
 2.84091000E-001 2.10000000E-001 0.00000000E+000
 2.87601000E-001 2.10000000E-001 0.00000000E+000
 2.91111000E-001 2.10000000E-001 0.00000000E+000
 2.94621000E-001 2.10000000E-001 0.00000000E+000
 2.98131000E-001 2.10000000E-001 0.00000000E+000
 3.01641000E-001 2.10000000E-001 0.00000000E+000
 3.05151000E-001 2.10000000E-001 0.00000000E+000
 3.08661000E-001 2.10000000E-001 0.00000000E+000
 3.12172000E-001 2.10000000E-001 0.00000000E+000
 3.15682000E-001 2.10000000E-001 0.00000000E+000
 3.19192000E-001 2.10000000E-001 0.00000000E+000
 3.22702000E-001 2.10000000E-001 0.00000000E+000
 3.26212000E-001 2.10000000E-001 0.00000000E+000
 3.29722000E-001 2.10000000E-001 0.00000000E+000
 3.33232000E-001 2.10000000E-001 0.00000000E+000
 3.36742000E-001 2.10000000E-001 0.00000000E+000
 3.40252000E-001 2.10000000E-001 0.00000000E+000
 3.43763000E-001 2.10000000E-001 0.00000000E+000
 3.47273000E-001 2.10000000E-001 0.00000000E+000
 3.50783000E-001 2.10000000E-001 0.00000000E+000
 3.54293000E-001 2.10000000E-001 0.00000000E+000
 3.57803000E-001 2.10000000E-001 0.00000000E+000
 3.61313000E-001 2.10000000E-001 0.00000000E+000
 3.64823000E-001 2.10000000E-001 0.00000000E+000
 3.68333000E-001 2.10000000E-001 0.00000000E+000
 3.71843000E-001 2.10000000E-001 0.00000000E+000
 3.75353000E-001 2.10000000E-001 0.00000000E+000
 3.78864000E-001 2.10000000E-001 0.00000000E+000
 3.82374000E-001 2.10000000E-001 0.00000000E+000
 3.85884000E-001 2.10000000E-001 0.00000000E+000
 3.89394000E-001 2.10000000E-001 0.00000000E+000
 3.92904000E-001 2.10000000E-001 0.00000000E+000
 3.96414000E-001 2.10000000E-001 0.00000000E+000
 3.99924000E-001 2.10000000E-001 0.00000000E+000
 4.03434000E-001 2.10000000E-001 0.00000000E+000
 4.06944000E-001 2.10000000E-001 0.00000000E+000
 4.10455000E-001 2.10000000E-001 0.00000000E+000
 4.13965000E-001 2.10000000E-001 0.00000000E+000
 4.17475000E-001 2.10000000E-001 0.00000000E+000
 4.20985000E-001 2.10000000E-001 0.00000000E+000
 4.24495000E-001 2.10000000E-001 0.00000000E+000
 4.28005000E-001 2.10000000E-001 0.00000000E+000
 4.31515000E-001 2.10000000E-001 0.00000000E+000
 4.35025000E-001 2.10000000E-001 0.00000000E+000
 4.38535000E-001 2.10000000E-001 0.00000000E+000
 4.42045000E-001 2.10000000E-001 0.00000000E+000
 4.45556000E-001 2.10000000E-001 0.00000000E+000
 4.49066000E-001 2.10000000E-001 0.00000000E+000
 4.52576000E-001 2.10000000E-001 0.00000000E+000
 4.56086000E-001 2.10000000E-001 0.00000000E+000
 4.59596000E-001 2.10000000E-001 0.00000000E+000
 4.63106000E-001 2.10000000E-001 0.00000000E+000
 4.66616000E-001 2.10000000E-001 0.00000000E+000
 4.70126000E-001 2.10000000E-001 0.00000000E+000
 4.73636000E-001 2.10000000E-001 0.00000000E+000
 4.77146000E-001 2.10000000E-001 0.00000000E+000
 4.80657000E-001 2.10000000E-001 0.00000000E+000
 4.84167000E-001 2.10000000E-001 0.00000000E+000
 4.87677000E-001 2.10000000E-001 0.00000000E+000
 4.91187000E-001 2.10000000E-001 0.00000000E+000
 4.94697000E-001 2.10000000E-001 0.00000000E+000
[...]
POINT_DATA 3232
VECTORS DISP double
  7.1127000E-005 -6.0484800E-003  6.8486300E-005
 -1.2178700E-004 -6.0361700E-003  6.8363900E-005
 -3.1784500E-004 -6.0214000E-003  6.7994500E-005
 -5.1202800E-004 -6.0072300E-003  6.7418200E-005
 -7.0702500E-004 -5.9927700E-003  6.6680300E-005
 -9.0144900E-004 -5.9784600E-003  6.5807700E-005
 -1.0961000E-003 -5.9640900E-003  6.4839700E-005
 -1.2905800E-003 -5.9497900E-003  6.3813200E-005
 -1.4851600E-003 -5.9354900E-003  6.2771200E-005
 -1.6796300E-003 -5.9212500E-003  6.1755400E-005
 -1.8742100E-003 -5.9070100E-003  6.0806500E-005
 -2.0687400E-003 -5.8928100E-003  5.9964200E-005
 -2.2633400E-003 -5.8786200E-003  5.9264200E-005
 -2.4579200E-003 -5.8644300E-003  5.8736000E-005
 -2.6526800E-003 -5.8502600E-003  5.8405800E-005
 -2.8471100E-003 -5.8359200E-003  5.8293800E-005
 -2.8098800E-003 -5.3239800E-003  5.8199800E-005
 -2.7723300E-003 -4.8114300E-003  5.7911900E-005
 -2.7348400E-003 -4.2994100E-003  5.7424600E-005
 -2.6970200E-003 -3.7871300E-003  5.6731300E-005
 -2.6589300E-003 -3.2753100E-003  5.5821300E-005
 -2.6203100E-003 -2.7635600E-003  5.4687100E-005
 -2.5811300E-003 -2.2525800E-003  5.3321500E-005
 -2.5411600E-003 -1.7421800E-003  5.1721500E-005
 -2.5003800E-003 -1.2331600E-003  4.9886700E-005
 -2.4585800E-003 -7.2550700E-004  4.7819900E-005
 -2.4157600E-003 -2.2009800E-004  4.5527800E-005
 -2.3717400E-003  2.8290700E-004  4.3019300E-005
 -2.3265400E-003  7.8258700E-004  4.0307200E-005
 -2.2800300E-003  1.2785700E-003  3.7406500E-005
 -2.2322600E-003  1.7699800E-003  3.4335200E-005
 -2.1831400E-003  2.2562100E-003  3.1113200E-005
 -2.1327400E-003  2.7364600E-003  2.7762500E-005
 -2.0810300E-003  3.2099200E-003  2.4307200E-005
 -2.0280800E-003  3.6758700E-003  2.0771900E-005
 -1.9739300E-003  4.1333600E-003  1.7183200E-005
 -1.9186300E-003  4.5817300E-003  1.3567400E-005
 -1.8622900E-003  5.0199900E-003  9.9522200E-006
 -1.8049800E-003  5.4474600E-003  6.3641600E-006
 -1.7468000E-003  5.8632300E-003  2.8303800E-006
 -1.6878500E-003  6.2666000E-003 -6.2316400E-007
 -1.6282500E-003  6.6567600E-003 -3.9714600E-006
 -1.5681100E-003  7.0329600E-003 -7.1904800E-006
 -1.5075400E-003  7.3945900E-003 -1.0258100E-005
 -1.4466600E-003  7.7408600E-003 -1.3153200E-005
 -1.3855700E-003  8.0713200E-003 -1.5857500E-005
 -1.3244100E-003  8.3852300E-003 -1.8353700E-005
 -1.2632500E-003  8.6822200E-003 -2.0627600E-005
 -1.2022200E-003  8.9617000E-003 -2.2666300E-005
 -1.1413700E-003  9.2233400E-003 -2.4459700E-005
 -1.0808500E-003  9.4667200E-003 -2.5999700E-005
 -1.0206700E-003  9.6915300E-003 -2.7280500E-005
 -9.6096200E-004  9.8975700E-003 -2.8298300E-005
 -9.0174700E-004  1.0084500E-002 -2.9051100E-005
 -8.4310100E-004  1.0252400E-002 -2.9539400E-005
 -7.8506800E-004  1.0400900E-002 -2.9764700E-005
 -7.2768200E-004  1.0530100E-002 -2.9731100E-005
 -6.7099600E-004  1.0640000E-002 -2.9443000E-005
 -6.1501100E-004  1.0730600E-002 -2.8907300E-005
 -5.5978500E-004  1.0801900E-002 -2.8131000E-005
 -5.0529900E-004  1.0854300E-002 -2.7122800E-005
 -4.5160900E-004  1.0887700E-002 -2.5891800E-005
 -3.9868700E-004  1.0902400E-002 -2.4448100E-005
 -3.4657900E-004  1.0898700E-002 -2.2802200E-005
 -2.9527100E-004  1.0876800E-002 -2.0964500E-005
 -2.4477900E-004  1.0837200E-002 -1.8947000E-005
 -1.9512400E-004  1.0779900E-002 -1.6759900E-005
 -1.4628500E-004  1.0705700E-002 -1.4415500E-005
 -9.8324800E-005  1.0614800E-002 -1.1924000E-005
 -5.1188800E-005  1.0507600E-002 -9.2972900E-006
 -4.9815400E-006  1.0384700E-002 -6.5456400E-006
  4.0376800E-005  1.0246400E-002 -3.6798800E-006
  8.4750500E-005  1.0093500E-002 -7.1028500E-007
  1.2822500E-004  9.9261100E-003  2.3536600E-006
  1.7065100E-004  9.7453300E-003  5.5017500E-006
  2.1209600E-004  9.5511600E-003  8.7259500E-006
  2.5242000E-004  9.3448100E-003  1.2016400E-005
  2.9165000E-004  9.1262800E-003  1.5366000E-005
  3.2966700E-004  8.8967800E-003  1.8766100E-005
  3.6645600E-004  8.6564600E-003  2.2209900E-005
  4.0190800E-004  8.4064200E-003  2.5690000E-005
  4.3598500E-004  8.1470300E-003  2.9199700E-005
  4.6856400E-004  7.8792200E-003  3.2732800E-005
  4.9961300E-004  7.6035900E-003  3.6282300E-005
  5.2895700E-004  7.3209400E-003  3.9843400E-005
  5.5661500E-004  7.0320200E-003  4.3408300E-005
  5.8231900E-004  6.7376400E-003  4.6972800E-005
  6.0617700E-004  6.4385100E-003  5.0528900E-005
  6.2779500E-004  6.1356500E-003  5.4071700E-005
  6.4740000E-004  5.8295300E-003  5.7592800E-005
  6.6445700E-004  5.5216100E-003  6.1085800E-005
  6.7931600E-004  5.2118900E-003  6.4541400E-005
  6.9131300E-004  4.9024400E-003  6.7950200E-005
  7.0090800E-004  4.5927000E-003  7.1300800E-005
  7.0732800E-004  4.2853800E-003  7.4579800E-005
  7.1112400E-004  3.9793800E-003  7.7771700E-005
  7.1144400E-004  3.6780200E-003  8.0857100E-005
  7.0890500E-004  3.3796900E-003  8.3813100E-005
  7.0260500E-004  3.0882700E-003  8.6611900E-005
  6.9321100E-004  2.8017200E-003  8.9218000E-005
  6.7979300E-004  2.5244500E-003  9.1591000E-005
  6.6304500E-004  2.2538800E-003  9.3676000E-005
  6.4206600E-004  1.9952000E-003  9.5412400E-005
  6.1749500E-004  1.7449800E-003  9.6715500E-005
  5.8859700E-004  1.5095700E-003  9.7493300E-005
  5.5576200E-004  1.2841600E-003  9.7615100E-005
  5.1873000E-004  1.0770000E-003  9.6939700E-005
  4.7719600E-004  8.8092800E-004  9.5264800E-005
  4.3205100E-004  7.0731900E-004  9.2372700E-005
  3.8132100E-004  5.4511400E-004  8.7945100E-005
  3.2846900E-004  4.1086500E-004  8.1645700E-005
  2.6777900E-004  2.8681100E-004  7.2954700E-005
  2.0867300E-004  1.9905600E-004  6.1361100E-005
  1.3746400E-004  1.1565400E-004  4.5975200E-005
  8.0400800E-005  8.3111400E-005  2.6198400E-005
  0.0000000E+000  0.0000000E+000  0.0000000E+000
  0.0000000E+000  0.0000000E+000  0.0000000E+000
  0.0000000E+000  0.0000000E+000  0.0000000E+000
  0.0000000E+000  0.0000000E+000  0.0000000E+000
  0.0000000E+000  0.0000000E+000  0.0000000E+000
  0.0000000E+000  0.0000000E+000  0.0000000E+000
  0.0000000E+000  0.0000000E+000  0.0000000E+000
  0.0000000E+000  0.0000000E+000  0.0000000E+000
  0.0000000E+000  0.0000000E+000  0.0000000E+000
  0.0000000E+000  0.0000000E+000  0.0000000E+000
  0.0000000E+000  0.0000000E+000  0.0000000E+000
  0.0000000E+000  0.0000000E+000  0.0000000E+000
  0.0000000E+000  0.0000000E+000  0.0000000E+000
  0.0000000E+000  0.0000000E+000  0.0000000E+000
  0.0000000E+000  0.0000000E+000  0.0000000E+000
  0.0000000E+000  0.0000000E+000  0.0000000E+000
 -8.4639600E-005  8.5977500E-005 -1.8325800E-005
 -1.4175200E-004  1.1592000E-004 -3.0511100E-005
 -2.1665100E-004  1.9756600E-004 -3.8550700E-005
 -2.7890100E-004  2.8158900E-004 -4.2991800E-005
 -3.4474500E-004  4.0265300E-004 -4.4728200E-005
 -4.0350100E-004  5.3211000E-004 -4.4268200E-005
 -4.6193100E-004  6.9065100E-004 -4.2137800E-005
 -5.1607400E-004  8.5882200E-004 -3.8678600E-005
 -5.6839200E-004  1.0509200E-003 -3.4213100E-005
 -6.1772700E-004  1.2524700E-003 -2.8966100E-005
 -6.6459700E-004  1.4738500E-003 -2.3141700E-005
 -7.0909200E-004  1.7039200E-003 -1.6887800E-005
 -7.5085700E-004  1.9502500E-003 -1.0335600E-005
 -7.9051300E-004  2.2042100E-003 -3.5813900E-006
 -8.2734000E-004  2.4711800E-003  3.2895100E-006
 -8.6213500E-004  2.7446000E-003  1.0215600E-005
 -8.9407800E-004  3.0280100E-003  1.7140900E-005
 -9.2396000E-004  3.3165600E-003  2.4027100E-005
 -9.5100200E-004  3.6123700E-003  3.0837400E-005
 -9.7588800E-004  3.9118600E-003  3.7549000E-005
 -9.9796300E-004  4.2161500E-003  4.4137500E-005
 -1.0177500E-003  4.5225000E-003  5.0590200E-005
 -1.0347600E-003  4.8314900E-003  5.6891900E-005
 -1.0493500E-003  5.1407900E-003  6.3035500E-005
 -1.0611900E-003  5.4507900E-003  6.9012600E-005
 -1.0704800E-003  5.7592800E-003  7.4819200E-005
 -1.0770200E-003  6.0667000E-003  8.0451500E-005
 -1.0809400E-003  6.3708000E-003  8.5907800E-005
 -1.0820900E-003  6.6721100E-003  9.1187600E-005
 -1.0805700E-003  6.9684100E-003  9.6289600E-005
 -1.0762500E-003  7.2602000E-003  1.0121600E-004
 -1.0692600E-003  7.5454300E-003  1.0596600E-004
 -1.0594500E-003  7.8244100E-003  1.1054200E-004
 -1.0469900E-003  8.0954200E-003  1.1494600E-004
 -1.0317100E-003  8.3584300E-003  1.1917800E-004
 -1.0138200E-003  8.6121900E-003  1.2324100E-004
 -9.9315100E-004  8.8562300E-003  1.2713600E-004
 -9.6992400E-004  9.0897900E-003  1.3086500E-004
 -9.4401800E-004  9.3120300E-003  1.3442800E-004
 -9.1562100E-004  9.5225600E-003  1.3782800E-004
 -8.8468800E-004  9.7203400E-003  1.4106300E-004
 -8.5136000E-004  9.9051100E-003  1.4413500E-004
 -8.1568300E-004  1.0075900E-002  1.4704300E-004
 -7.7775200E-004  1.0232400E-002  1.4978800E-004
 -7.3769000E-004  1.0373900E-002  1.5236700E-004
 -6.9557200E-004  1.0499700E-002  1.5477900E-004
 -6.5157000E-004  1.0609600E-002  1.5702200E-004
 -6.0577200E-004  1.0702700E-002  1.5909300E-004
 -5.5836600E-004  1.0779000E-002  1.6098900E-004
 -5.0948500E-004  1.0837500E-002  1.6270600E-004
 -4.5930300E-004  1.0878300E-002  1.6424100E-004
 -4.0802400E-004  1.0900500E-002  1.6558800E-004
 -3.5579200E-004  1.0904300E-002  1.6674300E-004
 -3.0287600E-004  1.0888900E-002  1.6769900E-004
 -2.4940900E-004  1.0854400E-002  1.6845200E-004
 -1.9569700E-004  1.0800400E-002  1.6899500E-004
 -1.4188700E-004  1.0726600E-002  1.6932200E-004
 -8.8285900E-005  1.0633200E-002  1.6942800E-004
 -3.5082300E-005  1.0519600E-002  1.6930500E-004
  1.7450000E-005  1.0386400E-002  1.6895100E-004
  6.9061800E-005  1.0233000E-002  1.6835700E-004
  1.1953300E-004  1.0060000E-002  1.6752300E-004
  1.6856200E-004  9.8670500E-003  1.6644200E-004
  2.1597200E-004  9.6547300E-003  1.6511500E-004
  2.6144800E-004  9.4230100E-003  1.6353900E-004
  3.0482800E-004  9.1723200E-003  1.6171600E-004
  3.4583000E-004  8.9030600E-003  1.5964900E-004
  3.8428300E-004  8.6154400E-003  1.5734000E-004
  4.1997500E-004  8.3102900E-003  1.5479900E-004
  4.5271000E-004  7.9877000E-003  1.5203100E-004
  4.8237200E-004  7.6487400E-003  1.4905000E-004
  5.0874600E-004  7.2935600E-003  1.4586800E-004
  5.3180700E-004  6.9232900E-003  1.4250000E-004
  5.5135600E-004  6.5383100E-003  1.3896500E-004
  5.6742600E-004  6.1396000E-003  1.3528300E-004
  5.7987400E-004  5.7278500E-003  1.3147700E-004
  5.8876800E-004  5.3038900E-003  1.2757100E-004
  5.9404700E-004  4.8686800E-003  1.2359000E-004
  5.9579600E-004  4.4228400E-003  1.1956300E-004
  5.9404100E-004  3.9675700E-003  1.1551800E-004
  5.8888800E-004  3.5033200E-003  1.1148400E-004
  5.8043500E-004  3.0314100E-003  1.0749100E-004
  5.6881700E-004  2.5521600E-003  1.0356900E-004
  5.5418400E-004  2.0669700E-003  9.9747900E-005
  5.3670300E-004  1.5759900E-003  9.6056000E-005
  5.1656500E-004  1.0806900E-003  9.2520100E-005
  4.9395700E-004  5.8095900E-004  8.9166800E-005
  4.6910400E-004  7.8427300E-005  8.6018600E-005
  4.4219500E-004 -4.2741500E-004  8.3097300E-005
  4.1349100E-004 -9.3469300E-004  8.0420300E-005
  3.8316000E-004 -1.4444400E-003  7.8003300E-005
  3.5148100E-004 -1.9544300E-003  7.5856500E-005
  3.1861700E-004 -2.4663800E-003  7.3989000E-005
  2.8479500E-004 -2.9775200E-003  7.2402200E-005
  2.5025300E-004 -3.4905300E-003  7.1099200E-005
  2.1500600E-004 -4.0016600E-003  7.0071200E-005
  1.7960500E-004 -4.5152000E-003  6.9315900E-005
  1.4344000E-004 -5.0254500E-003  6.8813400E-005
  1.0819600E-004 -5.5398300E-003  6.8550500E-005
 -8.6910400E-005 -5.5235500E-003  6.8430000E-005
 -5.0574800E-005 -5.0122600E-003  6.8687800E-005
 -1.4863800E-005 -4.4994500E-003  6.9181400E-005
  2.0719600E-005 -3.9878400E-003  6.9920700E-005
  5.6037700E-005 -3.4749200E-003  7.0924800E-005
  9.0662700E-005 -2.9631700E-003  7.2198300E-005
  1.2483100E-004 -2.4507000E-003  7.3747700E-005
  1.5795000E-004 -1.9396000E-003  7.5571700E-005
  1.9024800E-004 -1.4285500E-003  7.7667800E-005
  2.2115000E-004 -9.1936500E-004  8.0027900E-005
  2.5081000E-004 -4.1122800E-004  8.2641300E-005
  2.7871400E-004  9.4245000E-005  8.5493100E-005
  3.0493700E-004  5.9747000E-004  8.8566000E-005
  3.2904400E-004  1.0969700E-003  9.1839100E-005
  3.5104400E-004  1.5928200E-003  9.5289800E-005
  3.7058700E-004  2.0836500E-003  9.8892700E-005
  3.8763500E-004  2.5692700E-003  1.0262100E-004
  4.0192000E-004  3.0483900E-003  1.0644800E-004
  4.1338500E-004  3.5206300E-003  1.1034300E-004
  4.2183300E-004  3.9847600E-003  1.1427900E-004
  4.2721900E-004  4.4402500E-003  1.1822500E-004
  4.2939600E-004  4.8859600E-003  1.2215300E-004
  4.2836500E-004  5.3212500E-003  1.2603600E-004
  4.2401700E-004  5.7451100E-003  1.2984600E-004
  4.1640800E-004  6.1567900E-003  1.3355800E-004
  4.0547500E-004  6.5554200E-003  1.3714900E-004
  3.9131800E-004  6.9401900E-003  1.4059600E-004
  3.7393700E-004  7.3104200E-003  1.4388000E-004
  3.5345000E-004  7.6652400E-003  1.4698400E-004
  3.2994800E-004  8.0041700E-003  1.4989200E-004
  3.0353600E-004  8.3263600E-003  1.5259100E-004
  2.7440800E-004  8.6314200E-003  1.5507100E-004
  2.4264300E-004  8.9186500E-003  1.5732300E-004
  2.0852500E-004  9.1877200E-003  1.5934100E-004
  1.7212200E-004  9.4381200E-003  1.6112000E-004
  1.3376600E-004  9.6695100E-003  1.6265900E-004
  9.3545900E-005  9.8816500E-003  1.6395700E-004
  5.1788700E-005  1.0074200E-002  1.6501300E-004
  8.6380900E-006  1.0247100E-002  1.6583200E-004
 -3.5627700E-005  1.0400000E-002  1.6641500E-004
 -8.0790100E-005  1.0533200E-002  1.6676600E-004
 -1.2664600E-004  1.0646300E-002  1.6689100E-004
 -1.7290500E-004  1.0739600E-002  1.6679400E-004
 -2.1943400E-004  1.0813100E-002  1.6648200E-004
 -2.6590300E-004  1.0866900E-002  1.6595900E-004
 -3.1221700E-004  1.0901200E-002  1.6523200E-004
 -3.5805400E-004  1.0916300E-002  1.6430700E-004
 -4.0332100E-004  1.0912500E-002  1.6318900E-004
 -4.4774600E-004  1.0889900E-002  1.6188300E-004
 -4.9120200E-004  1.0849100E-002  1.6039400E-004
 -5.3350300E-004  1.0790300E-002  1.5872700E-004
 -5.7447100E-004  1.0714100E-002  1.5688600E-004
 -6.1401300E-004  1.0620700E-002  1.5487300E-004
 -6.5190500E-004  1.0510800E-002  1.5269300E-004
 -6.8813300E-004  1.0384700E-002  1.5034700E-004
 -7.2245500E-004  1.0243100E-002  1.4783800E-004
 -7.5489700E-004  1.0086600E-002  1.4516700E-004
 -7.8524100E-004  9.9155400E-003  1.4233500E-004
 -8.1351200E-004  9.7307400E-003  1.3934300E-004
 -8.3955600E-004  9.5326900E-003  1.3619000E-004
 -8.6335700E-004  9.3221300E-003  1.3287600E-004
 -8.8485000E-004  9.0996400E-003  1.2940000E-004
 -9.0396700E-004  8.8659300E-003  1.2576200E-004
 -9.2072800E-004  8.6217300E-003  1.2196000E-004
 -9.3502600E-004  8.3676300E-003  1.1799300E-004
 -9.4693600E-004  8.1046000E-003  1.1385900E-004
 -9.5634600E-004  7.8330100E-003  1.0955600E-004
 -9.6334400E-004  7.5541300E-003  1.0508300E-004
 -9.6785800E-004  7.2681100E-003  1.0043800E-004
 -9.6993900E-004  6.9765000E-003  9.5619200E-005
 -9.6959500E-004  6.6792400E-003  9.0626400E-005
 -9.6680500E-004  6.3781100E-003  8.5458400E-005
 -9.6167300E-004  6.0729300E-003  8.0115700E-005
 -9.5410200E-004  5.7656300E-003  7.4598900E-005
 -9.4427700E-004  5.4559800E-003  6.8909800E-005
 -9.3205100E-004  5.1460300E-003  6.3051500E-005
 -9.1764400E-004  4.8354600E-003  5.7028800E-005
 -9.0091000E-004  4.5265100E-003  5.0848400E-005
 -8.8204000E-004  4.2186600E-003  4.4519200E-005
 -8.6095100E-004  3.9145300E-003  3.8053600E-005
 -8.3773800E-004  3.6131800E-003  3.1466900E-005
 -8.1244200E-004  3.3178100E-003  2.4779700E-005
 -7.8499400E-004  3.0268400E-003  1.8017500E-005
 -7.5561800E-004  2.7443600E-003  1.1213000E-005
 -7.2401000E-004  2.4677700E-003  4.4071000E-006
 -6.9065700E-004  2.2024300E-003 -2.3490600E-006
 -6.5489900E-004  1.9443600E-003 -8.9914800E-006
 -6.1765700E-004  1.7005600E-003 -1.5440900E-005
 -5.7764900E-004  1.4652500E-003 -2.1598300E-005
 -5.3660400E-004  1.2475700E-003 -2.7341400E-005
 -4.9206800E-004  1.0393200E-003 -3.2517800E-005
 -4.4735700E-004  8.5254400E-004 -3.6938600E-005
 -3.9771300E-004  6.7570000E-004 -4.0369800E-005
 -3.4964200E-004  5.2485500E-004 -4.2517400E-005
 -2.9377100E-004  3.8373200E-004 -4.3020800E-005
 -2.4312300E-004  2.7422800E-004 -4.1412200E-005
 -1.7909900E-004  1.7361700E-004 -3.7147400E-005
 -1.2852400E-004  1.1066700E-004 -2.9468100E-005
 -5.4844200E-005  5.6112500E-005 -1.7752100E-005
 -2.8067000E-004 -5.5093000E-003  6.8070200E-005
 -2.4529800E-004 -4.9973800E-003  6.8321700E-005
 -2.0904100E-004 -4.4851600E-003  6.8785900E-005
 -1.7350800E-004 -3.9727900E-003  6.9479600E-005
 -1.3810900E-004 -3.4604600E-003  7.0415900E-005
 -1.0313800E-004 -2.9479500E-003  7.1604100E-005
 -6.8851400E-005 -2.4359700E-003  7.3047500E-005
 -3.5120900E-005 -1.9241800E-003  7.4747100E-005
 -2.4534200E-006 -1.4135000E-003  7.6699100E-005
  2.9353400E-005 -9.0371600E-004  7.8896800E-005
  5.9756300E-005 -3.9585500E-004  8.1329400E-005
  8.8926300E-005  1.1013400E-004  8.3983600E-005
  1.1635800E-004  6.1315900E-004  8.6842600E-005
  1.4216600E-004  1.1130800E-003  8.9887400E-005
  1.6591300E-004  1.6087800E-003  9.3096400E-005
  1.8765600E-004  2.0999300E-003  9.6446300E-005
  2.0704000E-004  2.5854200E-003  9.9912100E-005
  2.2408000E-004  3.0647700E-003  1.0346800E-004
  2.3849600E-004  3.5368800E-003  1.0708700E-004
  2.5029400E-004  4.0011300E-003  1.1074300E-004
  2.5925000E-004  4.4564800E-003  1.1440700E-004
  2.6539300E-004  4.9022200E-003  1.1805500E-004
  2.6853900E-004  5.3373600E-003  1.2165900E-004
  2.6876600E-004  5.7611300E-003  1.2519600E-004
  2.6592300E-004  6.1726500E-003  1.2864100E-004
  2.6013600E-004  6.5711000E-003  1.3197300E-004
  2.5130600E-004  6.9556900E-003  1.3517100E-004
  2.3958200E-004  7.3256600E-003  1.3821900E-004
  2.2494900E-004  7.6802900E-003  1.4109900E-004
  2.0753900E-004  8.0189000E-003  1.4379800E-004
  1.8745500E-004  8.3408600E-003  1.4630400E-004
  1.6478100E-004  8.6455900E-003  1.4860700E-004
  1.3974000E-004  8.9325600E-003  1.5069900E-004
  1.1237500E-004  9.2013100E-003  1.5257600E-004
  8.2997000E-005  9.4514000E-003  1.5423300E-004
  5.1634200E-005  9.6825100E-003  1.5566700E-004
  1.8633500E-005  9.8943100E-003  1.5687900E-004
 -1.5944600E-005  1.0086600E-002  1.5787000E-004
 -5.1783800E-005  1.0259100E-002  1.5864000E-004
 -8.8745200E-005  1.0411900E-002  1.5919400E-004
 -1.2659400E-004  1.0544700E-002  1.5953500E-004
 -1.6509200E-004  1.0657600E-002  1.5966600E-004
 -2.0410300E-004  1.0750700E-002  1.5959400E-004
 -2.4330700E-004  1.0823900E-002  1.5932300E-004
 -2.8264100E-004  1.0877500E-002  1.5885900E-004
 -3.2175300E-004  1.0911700E-002  1.5820600E-004
 -3.6060600E-004  1.0926600E-002  1.5736900E-004
 -3.9887800E-004  1.0922600E-002  1.5635400E-004
 -4.3650400E-004  1.0899900E-002  1.5516600E-004
 -4.7324700E-004  1.0858900E-002  1.5380800E-004
 -5.0897500E-004  1.0800100E-002  1.5228400E-004
 -5.4356300E-004  1.0723700E-002  1.5059800E-004
 -5.7680800E-004  1.0630200E-002  1.4875200E-004
 -6.0868700E-004  1.0520200E-002  1.4675000E-004
 -6.3895400E-004  1.0394100E-002  1.4459300E-004
 -6.6764700E-004  1.0252400E-002  1.4228300E-004
 -6.9452600E-004  1.0095800E-002  1.3982000E-004
 -7.1963700E-004  9.9246700E-003  1.3720500E-004
 -7.4280300E-004  9.7397900E-003  1.3443900E-004
 -7.6402000E-004  9.5416500E-003  1.3152000E-004
 -7.8322100E-004  9.3310000E-003  1.2844900E-004
 -8.0031800E-004  9.1083800E-003  1.2522500E-004
 -8.1536600E-004  8.8746000E-003  1.2184500E-004
 -8.2820200E-004  8.6301900E-003  1.1830900E-004
 -8.3897300E-004  8.3760500E-003  1.1461500E-004
 -8.4747800E-004  8.1126800E-003  1.1076000E-004
 -8.5390700E-004  7.8411100E-003  1.0674400E-004
 -8.5807400E-004  7.5617500E-003  1.0256400E-004
 -8.6015400E-004  7.2757900E-003  9.8219000E-005
 -8.6002700E-004  6.9835400E-003  9.3706800E-005
 -8.5780600E-004  6.6863600E-003  8.9026100E-005
 -8.5346300E-004  6.3844600E-003  8.4176600E-005
 -8.4704400E-004  6.0793700E-003  7.9157800E-005
 -8.3859000E-004  5.7711500E-003  7.3970500E-005
 -8.2811800E-004  5.4615900E-003  6.8615900E-005
 -8.1567600E-004  5.1505600E-003  6.3097000E-005
 -8.0132600E-004  4.8400900E-003  5.7417900E-005
 -7.8503400E-004  4.5298400E-003  5.1584600E-005