# vtk DataFile Version 3.0
MMH: CalculiX output 'object.frd' file to 'vtk' format
ASCII
DATASET UNSTRUCTURED_GRID
POINTS 3232 double
 6.00000000E-001 2.10000000E-001 0.00000000E+000
 6.00000000E-001 2.08667000E-001 0.00000000E+000
 6.00000000E-001 2.07333000E-001 0.00000000E+000
 6.00000000E-001 2.06000000E-001 0.00000000E+000
 6.00000000E-001 2.04667000E-001 0.00000000E+000
 6.00000000E-001 2.03333000E-001 0.00000000E+000
 6.00000000E-001 2.02000000E-001 0.00000000E+000
 6.00000000E-001 2.00667000E-001 0.00000000E+000
 6.00000000E-001 1.99333000E-001 0.00000000E+000
 6.00000000E-001 1.98000000E-001 0.00000000E+000
 6.00000000E-001 1.96667000E-001 0.00000000E+000
 6.00000000E-001 1.95333000E-001 0.00000000E+000
 6.00000000E-001 1.94000000E-001 0.00000000E+000
 6.00000000E-001 1.92667000E-001 0.00000000E+000
 6.00000000E-001 1.91333000E-001 0.00000000E+000
 6.00000000E-001 1.90000000E-001 0.00000000E+000
 5.96490000E-001 1.90000000E-001 0.00000000E+000
 5.92980000E-001 1.90000000E-001 0.00000000E+000
 5.89470000E-001 1.90000000E-001 0.00000000E+000
 5.85960000E-001 1.90000000E-001 0.00000000E+000
 5.82449000E-001 1.90000000E-001 0.00000000E+000
 5.78939000E-001 1.90000000E-001 0.00000000E+000
 5.75429000E-001 1.90000000E-001 0.00000000E+000
 5.71919000E-001 1.90000000E-001 0.00000000E+000
 5.68409000E-001 1.90000000E-001 0.00000000E+000
 5.64899000E-001 1.90000000E-001 0.00000000E+000
 5.61389000E-001 1.90000000E-001 0.00000000E+000
 5.57879000E-001 1.90000000E-001 0.00000000E+000
 5.54369000E-001 1.90000000E-001 0.00000000E+000
 5.50859000E-001 1.90000000E-001 0.00000000E+000
 5.47348000E-001 1.90000000E-001 0.00000000E+000
 5.43838000E-001 1.90000000E-001 0.00000000E+000
 5.40328000E-001 1.90000000E-001 0.00000000E+000
 5.36818000E-001 1.90000000E-001 0.00000000E+000
 5.33308000E-001 1.90000000E-001 0.00000000E+000
 5.29798000E-001 1.90000000E-001 0.00000000E+000
 5.26288000E-001 1.90000000E-001 0.00000000E+000
 5.22778000E-001 1.90000000E-001 0.00000000E+000
 5.19268000E-001 1.90000000E-001 0.00000000E+000
 5.15758000E-001 1.90000000E-001 0.00000000E+000
 5.12247000E-001 1.90000000E-001 0.00000000E+000
 5.08737000E-001 1.90000000E-001 0.00000000E+000
 5.05227000E-001 1.90000000E-001 0.00000000E+000
 5.01717000E-001 1.90000000E-001 0.00000000E+000
 4.98207000E-001 1.90000000E-001 0.00000000E+000
 4.94697000E-001 1.90000000E-001 0.00000000E+000
 4.91187000E-001 1.90000000E-001 0.00000000E+000
 4.87677000E-001 1.90000000E-001 0.00000000E+000
 4.84167000E-001 1.90000000E-001 0.00000000E+000
 4.80657000E-001 1.90000000E-001 0.00000000E+000
 4.77146000E-001 1.90000000E-001 0.00000000E+000
 4.73636000E-001 1.90000000E-001 0.00000000E+000
 4.70126000E-001 1.90000000E-001 0.00000000E+000
 4.66616000E-001 1.90000000E-001 0.00000000E+000
 4.63106000E-001 1.90000000E-001 0.00000000E+000
 4.59596000E-001 1.90000000E-001 0.00000000E+000
 4.56086000E-001 1.90000000E-001 0.00000000E+000
 4.52576000E-001 1.90000000E-001 0.00000000E+000
 4.49066000E-001 1.90000000E-001 0.00000000E+000
 4.45556000E-001 1.90000000E-001 0.00000000E+000
 4.42045000E-001 1.90000000E-001 0.00000000E+000
 4.38535000E-001 1.90000000E-001 0.00000000E+000
 4.35025000E-001 1.90000000E-001 0.00000000E+000
 4.31515000E-001 1.90000000E-001 0.00000000E+000
 4.28005000E-001 1.90000000E-001 0.00000000E+000
 4.24495000E-001 1.90000000E-001 0.00000000E+000
 4.20985000E-001 1.90000000E-001 0.00000000E+000
 4.17475000E-001 1.90000000E-001 0.00000000E+000
 4.13965000E-001 1.90000000E-001 0.00000000E+000
 4.10455000E-001 1.90000000E-001 0.00000000E+000
 4.06944000E-001 1.90000000E-001 0.00000000E+000
 4.03434000E-001 1.90000000E-001 0.00000000E+000
 3.99924000E-001 1.90000000E-001 0.00000000E+000
 3.96414000E-001 1.90000000E-001 0.00000000E+000
 3.92904000E-001 1.90000000E-001 0.00000000E+000
 3.89394000E-001 1.90000000E-001 0.00000000E+000
 3.85884000E-001 1.90000000E-001 0.00000000E+000
 3.82374000E-001 1.90000000E-001 0.00000000E+000
 3.78864000E-001 1.90000000E-001 0.00000000E+000
 3.75353000E-001 1.90000000E-001 0.00000000E+000
 3.71843000E-001 1.90000000E-001 0.00000000E+000
 3.68333000E-001 1.90000000E-001 0.00000000E+000
 3.64823000E-001 1.90000000E-001 0.00000000E+000
 3.61313000E-001 1.90000000E-001 0.00000000E+000
 3.57803000E-001 1.90000000E-001 0.00000000E+000
 3.54293000E-001 1.90000000E-001 0.00000000E+000
 3.50783000E-001 1.90000000E-001 0.00000000E+000
 3.47273000E-001 1.90000000E-001 0.00000000E+000
 3.43763000E-001 1.90000000E-001 0.00000000E+000
 3.40252000E-001 1.90000000E-001 0.00000000E+000
 3.36742000E-001 1.90000000E-001 0.00000000E+000
 3.33232000E-001 1.90000000E-001 0.00000000E+000
 3.29722000E-001 1.90000000E-001 0.00000000E+000
 3.26212000E-001 1.90000000E-001 0.00000000E+000
 3.22702000E-001 1.90000000E-001 0.00000000E+000
 3.19192000E-001 1.90000000E-001 0.00000000E+000
 3.15682000E-001 1.90000000E-001 0.00000000E+000
 3.12172000E-001 1.90000000E-001 0.00000000E+000
 3.08661000E-001 1.90000000E-001 0.00000000E+000
 3.05151000E-001 1.90000000E-001 0.00000000E+000
 3.01641000E-001 1.90000000E-001 0.00000000E+000
 2.98131000E-001 1.90000000E-001 0.00000000E+000
 2.94621000E-001 1.90000000E-001 0.00000000E+000
 2.91111000E-001 1.90000000E-001 0.00000000E+000
 2.87601000E-001 1.90000000E-001 0.00000000E+000
 2.84091000E-001 1.90000000E-001 0.00000000E+000
 2.80581000E-001 1.90000000E-001 0.00000000E+000
 2.77071000E-001 1.90000000E-001 0.00000000E+000
 2.73560000E-001 1.90000000E-001 0.00000000E+000
 2.70050000E-001 1.90000000E-001 0.00000000E+000
 2.66540000E-001 1.90000000E-001 0.00000000E+000
 2.63030000E-001 1.90000000E-001 0.00000000E+000
 2.59520000E-001 1.90000000E-001 0.00000000E+000
 2.56010000E-001 1.90000000E-001 0.00000000E+000
 2.52500000E-001 1.90000000E-001 0.00000000E+000
 2.48990000E-001 1.90000000E-001 0.00000000E+000
 2.48990000E-001 1.91333000E-001 0.00000000E+000
 2.48990000E-001 1.92667000E-001 0.00000000E+000
 2.48990000E-001 1.94000000E-001 0.00000000E+000
 2.48990000E-001 1.95333000E-001 0.00000000E+000
 2.48990000E-001 1.96667000E-001 0.00000000E+000
 2.48990000E-001 1.98000000E-001 0.00000000E+000
 2.48990000E-001 1.99333000E-001 0.00000000E+000
 2.48990000E-001 2.00667000E-001 0.00000000E+000
 2.48990000E-001 2.02000000E-001 0.00000000E+000
 2.48990000E-001 2.03333000E-001 0.00000000E+000
 2.48990000E-001 2.04667000E-001 0.00000000E+000
 2.48990000E-001 2.06000000E-001 0.00000000E+000
 2.48990000E-001 2.07333000E-001 0.00000000E+000
 2.48990000E-001 2.08667000E-001 0.00000000E+000
 2.48990000E-001 2.10000000E-001 0.00000000E+000
 2.52500000E-001 2.10000000E-001 0.00000000E+000
 2.56010000E-001 2.10000000E-001 0.00000000E+000
 2.59520000E-001 2.10000000E-001 0.00000000E+000
 2.63030000E-001 2.10000000E-001 0.00000000E+000
 2.66540000E-001 2.10000000E-001 0.00000000E+000
 2.70050000E-001 2.10000000E-001 0.00000000E+000
 2.73560000E-001 2.10000000E-001 0.00000000E+000
 2.77071000E-001 2.10000000E-001 0.00000000E+000
 2.80581000E-001 2.10000000E-001 0.00000000E+000
 2.84091000E-001 2.10000000E-001 0.00000000E+000
 2.87601000E-001 2.10000000E-001 0.00000000E+000
 2.91111000E-001 2.10000000E-001 0.00000000E+000
 2.94621000E-001 2.10000000E-001 0.00000000E+000
 2.98131000E-001 2.10000000E-001 0.00000000E+000
 3.01641000E-001 2.10000000E-001 0.00000000E+000
 3.05151000E-001 2.10000000E-001 0.00000000E+000
 3.08661000E-001 2.10000000E-001 0.00000000E+000
 3.12172000E-001 2.10000000E-001 0.00000000E+000
 3.15682000E-001 2.10000000E-001 0.00000000E+000
 3.19192000E-001 2.10000000E-001 0.00000000E+000
 3.22702000E-001 2.10000000E-001 0.00000000E+000
 3.26212000E-001 2.10000000E-001 0.00000000E+000
 3.29722000E-001 2.10000000E-001 0.00000000E+000
 3.33232000E-001 2.10000000E-001 0.00000000E+000
 3.36742000E-001 2.10000000E-001 0.00000000E+000
 3.40252000E-001 2.10000000E-001 0.00000000E+000
 3.43763000E-001 2.10000000E-001 0.00000000E+000
 3.47273000E-001 2.10000000E-001 0.00000000E+000
 3.50783000E-001 2.10000000E-001 0.00000000E+000
 3.54293000E-001 2.10000000E-001 0.00000000E+000
 3.57803000E-001 2.10000000E-001 0.00000000E+000
 3.61313000E-001 2.10000000E-001 0.00000000E+000
 3.64823000E-001 2.10000000E-001 0.00000000E+000
 3.68333000E-001 2.10000000E-001 0.00000000E+000
 3.71843000E-001 2.10000000E-001 0.00000000E+000
 3.75353000E-001 2.10000000E-001 0.00000000E+000
 3.78864000E-001 2.10000000E-001 0.00000000E+000
 3.82374000E-001 2.10000000E-001 0.00000000E+000
 3.85884000E-001 2.10000000E-001 0.00000000E+000
 3.89394000E-001 2.10000000E-001 0.00000000E+000
 3.92904000E-001 2.10000000E-001 0.00000000E+000
 3.96414000E-001 2.10000000E-001 0.00000000E+000
 3.99924000E-001 2.10000000E-001 0.00000000E+000
 4.03434000E-001 2.10000000E-001 0.00000000E+000
 4.06944000E-001 2.10000000E-001 0.00000000E+000
 4.10455000E-001 2.10000000E-001 0.00000000E+000
 4.13965000E-001 2.10000000E-001 0.00000000E+000
 4.17475000E-001 2.10000000E-001 0.00000000E+000
 4.20985000E-001 2.10000000E-001 0.00000000E+000
 4.24495000E-001 2.10000000E-001 0.00000000E+000
 4.28005000E-001 2.10000000E-001 0.00000000E+000
 4.31515000E-001 2.10000000E-001 0.00000000E+000
 4.35025000E-001 2.10000000E-001 0.00000000E+000
 4.38535000E-001 2.10000000E-001 0.00000000E+000
 4.42045000E-001 2.10000000E-001 0.00000000E+000
 4.45556000E-001 2.10000000E-001 0.00000000E+000
 4.49066000E-001 2.10000000E-001 0.00000000E+000
 4.52576000E-001 2.10000000E-001 0.00000000E+000
 4.56086000E-001 2.10000000E-001 0.00000000E+000
 4.59596000E-001 2.10000000E-001 0.00000000E+000
 4.63106000E-001 2.10000000E-001 0.00000000E+000
 4.66616000E-001 2.10000000E-001 0.00000000E+000
 4.70126000E-001 2.10000000E-001 0.00000000E+000
 4.73636000E-001 2.10000000E-001 0.00000000E+000
 4.77146000E-001 2.10000000E-001 0.00000000E+000
 4.80657000E-001 2.10000000E-001 0.00000000E+000
 4.84167000E-001 2.10000000E-001 0.00000000E+000
 4.87677000E-001 2.10000000E-001 0.00000000E+000
 4.91187000E-001 2.10000000E-001 0.00000000E+000
 4.94697000E-001 2.10000000E-001 0.00000000E+000
[...]
POINT_DATA 3232
VECTORS DISP double
 -1.9075400E-003  2.2699400E-002  9.3270900E-005
 -1.7707400E-003  2.2704600E-002  9.3252500E-005
 -1.6371200E-003  2.2711500E-002  9.3194600E-005
 -1.5017900E-003  2.2718300E-002  9.3125700E-005
 -1.3671800E-003  2.2725100E-002  9.3065600E-005
 -1.2320700E-003  2.2732000E-002  9.3011800E-005
 -1.0971400E-003  2.2738900E-002  9.2967600E-005
 -9.6209900E-004  2.2745800E-002  9.2931000E-005
 -8.2705000E-004  2.2752700E-002  9.2903300E-005
 -6.9196700E-004  2.2759600E-002  9.2884000E-005
 -5.5685400E-004  2.2766600E-002  9.2871700E-005
 -4.2180500E-004  2.2773500E-002  9.2866900E-005
 -2.8650600E-004  2.2780400E-002  9.2867600E-005
 -1.5159200E-004  2.2787300E-002  9.2873700E-005
 -1.5875800E-005  2.2794400E-002  9.2876600E-005
  1.1845600E-004  2.2801000E-002  9.2873600E-005
  1.3643000E-004  2.2445300E-002  9.2909000E-005
  1.5319500E-004  2.2089000E-002  9.3001600E-005
  1.7063900E-004  2.1733300E-002  9.3135900E-005
  1.8762500E-004  2.1377200E-002  9.3309000E-005
  2.0483700E-004  2.1021400E-002  9.3513900E-005
  2.2186000E-004  2.0665400E-002  9.3744700E-005
  2.3901800E-004  2.0309600E-002  9.3998200E-005
  2.5616700E-004  1.9953800E-002  9.4272600E-005
  2.7346800E-004  1.9598000E-002  9.4569200E-005
  2.9088400E-004  1.9242100E-002  9.4890500E-005
  3.0848500E-004  1.8886000E-002  9.5241700E-005
  3.2627500E-004  1.8529800E-002  9.5628200E-005
  3.4426300E-004  1.8173300E-002  9.6057500E-005
  3.6247000E-004  1.7816400E-002  9.6536500E-005
  3.8085500E-004  1.7459100E-002  9.7073500E-005
  3.9944000E-004  1.7101200E-002  9.7676200E-005
  4.1814900E-004  1.6742800E-002  9.8352100E-005
  4.3699200E-004  1.6383700E-002  9.9108600E-005
  4.5587200E-004  1.6024000E-002  9.9951600E-005
  4.7477300E-004  1.5663600E-002  1.0088700E-004
  4.9359700E-004  1.5302700E-002  1.0191900E-004
  5.1229100E-004  1.4941000E-002  1.0305100E-004
  5.3076700E-004  1.4578900E-002  1.0428500E-004
  5.4893500E-004  1.4216300E-002  1.0562100E-004
  5.6672500E-004  1.3853400E-002  1.0705900E-004
  5.8401300E-004  1.3490400E-002  1.0859600E-004
  6.0074700E-004  1.3127300E-002  1.1022800E-004
  6.1678600E-004  1.2764600E-002  1.1195000E-004
  6.3208200E-004  1.2402200E-002  1.1375600E-004
  6.4650400E-004  1.2040800E-002  1.1563700E-004
  6.5999200E-004  1.1680200E-002  1.1758500E-004
  6.7244700E-004  1.1321000E-002  1.1958800E-004
  6.8378600E-004  1.0963500E-002  1.2163600E-004
  6.9395700E-004  1.0608000E-002  1.2371600E-004
  7.0285400E-004  1.0254900E-002  1.2581600E-004
  7.1047600E-004  9.9045800E-003  1.2792100E-004
  7.1670200E-004  9.5574800E-003  1.3001800E-004
  7.2156700E-004  9.2137800E-003  1.3209200E-004
  7.2496700E-004  8.8742100E-003  1.3412900E-004
  7.2694500E-004  8.5387500E-003  1.3611400E-004
  7.2744300E-004  8.2082600E-003  1.3803200E-004
  7.2648400E-004  7.8826400E-003  1.3987000E-004
  7.2408300E-004  7.5626900E-003  1.4161400E-004
  7.2022600E-004  7.2484400E-003  1.4325200E-004
  7.1500600E-004  6.9404100E-003  1.4477000E-004
  7.0837900E-004  6.6389000E-003  1.4615900E-004
  7.0049400E-004  6.3440600E-003  1.4740700E-004
  6.9130300E-004  6.0564700E-003  1.4850400E-004
  6.8097500E-004  5.7759300E-003  1.4944400E-004
  6.6949600E-004  5.5032200E-003  1.5021800E-004
  6.5700500E-004  5.2379000E-003  1.5082100E-004
  6.4356000E-004  4.9807600E-003  1.5124900E-004
  6.2924100E-004  4.7313600E-003  1.5149700E-004
  6.1418300E-004  4.4902500E-003  1.5156400E-004
  5.9840700E-004  4.2572100E-003  1.5144900E-004
  5.8210600E-004  4.0323600E-003  1.5115200E-004
  5.6526400E-004  3.8158300E-003  1.5067300E-004
  5.4809100E-004  3.6072800E-003  1.5001500E-004
  5.3057300E-004  3.4071500E-003  1.4918000E-004
  5.1289100E-004  3.2147200E-003  1.4817400E-004
  4.9506900E-004  3.0306100E-003  1.4699800E-004
  4.7722300E-004  2.8539700E-003  1.4566000E-004
  4.5943300E-004  2.6852900E-003  1.4416500E-004
  4.4174300E-004  2.5238900E-003  1.4251900E-004
  4.2427500E-004  2.3699400E-003  1.4072700E-004
  4.0702200E-004  2.2230400E-003  1.3879800E-004
  3.9011700E-004  2.0829900E-003  1.3673800E-004
  3.7353700E-004  1.9497300E-003  1.3455400E-004
  3.5738300E-004  1.8227000E-003  1.3225300E-004
  3.4165500E-004  1.7020800E-003  1.2984000E-004
  3.2638800E-004  1.5871400E-003  1.2732600E-004
  3.1163300E-004  1.4781000E-003  1.2471300E-004
  2.9734000E-004  1.3743200E-003  1.2201100E-004
  2.8361500E-004  1.2758000E-003  1.1922300E-004
  2.7033400E-004  1.1822100E-003  1.1635600E-004
  2.5763800E-004  1.0932200E-003  1.1341400E-004
  2.4535800E-004  1.0088800E-003  1.1040200E-004
  2.3363800E-004  9.2848500E-004  1.0732200E-004
  2.2229600E-004  8.5248300E-004  1.0417700E-004
  2.1145100E-004  7.7987600E-004  1.0096900E-004
  2.0093500E-004  7.1138500E-004  9.7697000E-005
  1.9082500E-004  6.4588500E-004  9.4361300E-005
  1.8097500E-004  5.8419800E-004  9.0958100E-005
  1.7142400E-004  5.2525100E-004  8.7483300E-005
  1.6203900E-004  4.6983300E-004  8.3930000E-005
  1.5283600E-004  4.1701700E-004  8.0288200E-005
  1.4368300E-004  3.6753500E-004  7.6546300E-005
  1.3458100E-004  3.2057400E-004  7.2686100E-005
  1.2540200E-004  2.7692100E-004  6.8688700E-005
  1.1611800E-004  2.3570500E-004  6.4524800E-005
  1.0664500E-004  1.9801400E-004  6.0164200E-005
  9.6851900E-005  1.6261300E-004  5.5561200E-005
  8.6824200E-005  1.3127000E-004  5.0668200E-005
  7.6133100E-005  1.0195000E-004  4.5414800E-005
  6.5325700E-005  7.7620400E-005  3.9726500E-005
  5.3239800E-005  5.4836300E-005  3.3491000E-005
  4.1585100E-005  3.8637100E-005  2.6594900E-005
  2.7580300E-005  2.2784900E-005  1.8851000E-005
  1.6323100E-005  1.6351700E-005  1.0124200E-005
  0.0000000E+000  0.0000000E+000  0.0000000E+000
  0.0000000E+000  0.0000000E+000  0.0000000E+000
  0.0000000E+000  0.0000000E+000  0.0000000E+000
  0.0000000E+000  0.0000000E+000  0.0000000E+000
  0.0000000E+000  0.0000000E+000  0.0000000E+000
  0.0000000E+000  0.0000000E+000  0.0000000E+000
  0.0000000E+000  0.0000000E+000  0.0000000E+000
  0.0000000E+000  0.0000000E+000  0.0000000E+000
  0.0000000E+000  0.0000000E+000  0.0000000E+000
  0.0000000E+000  0.0000000E+000  0.0000000E+000
  0.0000000E+000  0.0000000E+000  0.0000000E+000
  0.0000000E+000  0.0000000E+000  0.0000000E+000
  0.0000000E+000  0.0000000E+000  0.0000000E+000
  0.0000000E+000  0.0000000E+000  0.0000000E+000
  0.0000000E+000  0.0000000E+000  0.0000000E+000
  0.0000000E+000  0.0000000E+000  0.0000000E+000
 -1.5732900E-005  1.7920100E-005  1.5931600E-006
 -2.5521900E-005  2.4200100E-005  4.1130000E-006
 -3.8604000E-005  4.0345200E-005  7.1437700E-006
 -4.9023500E-005  5.6360200E-005  1.0577900E-005
 -6.0165100E-005  7.9286100E-005  1.4239000E-005
 -6.9865500E-005  1.0329500E-004  1.8032700E-005
 -7.9623800E-005  1.3282500E-004  2.1860200E-005
 -8.8640200E-005  1.6370800E-004  2.5660500E-005
 -9.7524500E-005  1.9938200E-004  2.9378100E-005
 -1.0609500E-004  2.3653400E-004  3.2975200E-005
 -1.1451200E-004  2.7799400E-004  3.6422000E-005
 -1.2291400E-004  3.2113400E-004  3.9696800E-005
 -1.3122000E-004  3.6819600E-004  4.2784700E-005
 -1.3973200E-004  4.1728100E-004  4.5675600E-005
 -1.4825500E-004  4.6997500E-004  4.8363500E-005
 -1.5714700E-004  5.2514800E-004  5.0846700E-005
 -1.6618200E-004  5.8372600E-004  5.3124500E-005
 -1.7570800E-004  6.4528700E-004  5.5201000E-005
 -1.8552700E-004  7.1020800E-004  5.7079000E-005
 -1.9591900E-004  7.7859700E-004  5.8766800E-005
 -2.0676100E-004  8.5050500E-004  6.0269400E-005
 -2.1823700E-004  9.2628900E-004  6.1597600E-005
 -2.3030500E-004  1.0059700E-003  6.2758800E-005
 -2.4305900E-004  1.0898500E-003  6.3764800E-005
 -2.5652200E-004  1.1781600E-003  6.4625300E-005
 -2.7072200E-004  1.2709800E-003  6.5352200E-005
 -2.8571400E-004  1.3688400E-003  6.5957100E-005
 -3.0149700E-004  1.4715300E-003  6.6451700E-005
 -3.1811800E-004  1.5798700E-003  6.6849300E-005
 -3.3558500E-004  1.6934400E-003  6.7160900E-005
 -3.5390200E-004  1.8132000E-003  6.7400900E-005
 -3.7311200E-004  1.9386800E-003  6.7580400E-005
 -3.9315900E-004  2.0707700E-003  6.7713500E-005
 -4.1412500E-004  2.2091600E-003  6.7811600E-005
 -4.3590400E-004  2.3544700E-003  6.7887900E-005
 -4.5859600E-004  2.5066900E-003  6.7954300E-005
 -4.8207000E-004  2.6660700E-003  6.8022300E-005
 -5.0641500E-004  2.8329100E-003  6.8104000E-005
 -5.3150500E-004  3.0071200E-003  6.8209200E-005
 -5.5738900E-004  3.1892100E-003  6.8349400E-005
 -5.8397300E-004  3.3788900E-003  6.8532900E-005
 -6.1124500E-004  3.5767100E-003  6.8769700E-005
 -6.3915500E-004  3.7823500E-003  6.9066800E-005
 -6.6763200E-004  3.9961900E-003  6.9432000E-005
 -6.9665700E-004  4.2180400E-003  6.9870700E-005
 -7.2611900E-004  4.4480100E-003  7.0388200E-005
 -7.5601500E-004  4.6861000E-003  7.0988300E-005
 -7.8621400E-004  4.9321100E-003  7.1673100E-005
 -8.1670500E-004  5.1862100E-003  7.2444800E-005
 -8.4736700E-004  5.4479700E-003  7.3302300E-005
 -8.7815900E-004  5.7175900E-003  7.4245500E-005
 -9.0899000E-004  5.9945500E-003  7.5270800E-005
 -9.3977900E-004  6.2789800E-003  7.6375300E-005
 -9.7047600E-004  6.5703900E-003  7.7553300E-005
 -1.0009600E-003  6.8687000E-003  7.8798900E-005
 -1.0312200E-003  7.1735600E-003  8.0104500E-005
 -1.0611100E-003  7.4846400E-003  8.1461600E-005
 -1.0906500E-003  7.8017600E-003  8.2860900E-005
 -1.1196800E-003  8.1243300E-003  8.4291500E-005
 -1.1482300E-003  8.4523300E-003  8.5743200E-005
 -1.1761800E-003  8.7850300E-003  8.7203200E-005
 -1.2035100E-003  9.1224100E-003  8.8660300E-005
 -1.2301800E-003  9.4637600E-003  9.0101100E-005
 -1.2561500E-003  9.8089600E-003  9.1513600E-005
 -1.2814000E-003  1.0157400E-002  9.2884800E-005
 -1.3058900E-003  1.0508900E-002  9.4202300E-005
 -1.3296500E-003  1.0863000E-002  9.5454200E-005
 -1.3526200E-003  1.1219200E-002  9.6628500E-005
 -1.3748600E-003  1.1577400E-002  9.7715200E-005
 -1.3963400E-003  1.1937000E-002  9.8703300E-005
 -1.4171200E-003  1.2298000E-002  9.9585400E-005
 -1.4372100E-003  1.2659700E-002  1.0035300E-004
 -1.4566300E-003  1.3022100E-002  1.0100000E-004
 -1.4754700E-003  1.3384800E-002  1.0152200E-004
 -1.4937000E-003  1.3747700E-002  1.0191700E-004
 -1.5114800E-003  1.4110500E-002  1.0218400E-004
 -1.5287500E-003  1.4473100E-002  1.0232200E-004
 -1.5457000E-003  1.4835400E-002  1.0233600E-004
 -1.5622400E-003  1.5197000E-002  1.0223000E-004
 -1.5785900E-003  1.5558300E-002  1.0201000E-004
 -1.5946700E-003  1.5918600E-002  1.0168500E-004
 -1.6106700E-003  1.6278700E-002  1.0126600E-004
 -1.6265200E-003  1.6637700E-002  1.0076400E-004
 -1.6424000E-003  1.6996500E-002  1.0019200E-004
 -1.6582200E-003  1.7354300E-002  9.9566400E-005
 -1.6741700E-003  1.7711900E-002  9.8901000E-005
 -1.6901300E-003  1.8068600E-002  9.8213200E-005
 -1.7062800E-003  1.8425400E-002  9.7518500E-005
 -1.7224700E-003  1.8781400E-002  9.6834700E-005
 -1.7389200E-003  1.9137700E-002  9.6176200E-005
 -1.7553500E-003  1.9493200E-002  9.5559800E-005
 -1.7721000E-003  1.9849400E-002  9.4997300E-005
 -1.7887300E-003  2.0204600E-002  9.4503000E-005
 -1.8057400E-003  2.0561100E-002  9.4083600E-005
 -1.8224300E-003  2.0916200E-002  9.3749700E-005
 -1.8396800E-003  2.1273300E-002  9.3500300E-005
 -1.8561600E-003  2.1628200E-002  9.3341100E-005
 -1.8736900E-003  2.1986100E-002  9.3259000E-005
 -1.8893100E-003  2.2340200E-002  9.3249100E-005
 -1.7550800E-003  2.2348800E-002  9.3237000E-005
 -1.7379300E-003  2.1991900E-002  9.3250900E-005
 -1.7212600E-003  2.1636300E-002  9.3337000E-005
 -1.7043000E-003  2.1279400E-002  9.3498800E-005
 -1.6874100E-003  2.0924000E-002  9.3748100E-005
 -1.6705400E-003  2.0567600E-002  9.4081800E-005
 -1.6536900E-003  2.0212200E-002  9.4498600E-005
 -1.6369700E-003  1.9856000E-002  9.4990400E-005
 -1.6202900E-003  1.9500600E-002  9.5548700E-005
 -1.6037500E-003  1.9144500E-002  9.6161100E-005
 -1.5872900E-003  1.8788800E-002  9.6814700E-005
 -1.5709600E-003  1.8432400E-002  9.7494400E-005
 -1.5547200E-003  1.8076100E-002  9.8184700E-005
 -1.5385600E-003  1.7719000E-002  9.8869200E-005
 -1.5224700E-003  1.7361700E-002  9.9532000E-005
 -1.5064000E-003  1.7003600E-002  1.0015700E-004
 -1.4903400E-003  1.6645200E-002  1.0072900E-004
 -1.4742100E-003  1.6285900E-002  1.0123400E-004
 -1.4580100E-003  1.5926100E-002  1.0165800E-004
 -1.4416500E-003  1.5565500E-002  1.0199000E-004
 -1.4251100E-003  1.5204400E-002  1.0221900E-004
 -1.4083200E-003  1.4842500E-002  1.0233800E-004
 -1.3912300E-003  1.4480300E-002  1.0234000E-004
 -1.3738100E-003  1.4117600E-002  1.0222000E-004
 -1.3559700E-003  1.3754700E-002  1.0197500E-004
 -1.3377200E-003  1.3391700E-002  1.0160500E-004
 -1.3189500E-003  1.3028800E-002  1.0111000E-004
 -1.2996800E-003  1.2666200E-002  1.0049300E-004
 -1.2798400E-003  1.2304300E-002  9.9758000E-005
 -1.2594300E-003  1.1943200E-002  9.8911500E-005
 -1.2384100E-003  1.1583300E-002  9.7960700E-005
 -1.2167600E-003  1.1224900E-002  9.6913800E-005
 -1.1945200E-003  1.0868300E-002  9.5780600E-005
 -1.1716100E-003  1.0513900E-002  9.4571400E-005
 -1.1481300E-003  1.0162100E-002  9.3297600E-005
 -1.1240100E-003  9.8132300E-003  9.1970900E-005
 -1.0993500E-003  9.4677100E-003  9.0603300E-005
 -1.0741000E-003  9.1258800E-003  8.9207400E-005
 -1.0483600E-003  8.7882200E-003  8.7795100E-005
 -1.0221300E-003  8.4549800E-003  8.6379000E-005
 -9.9547200E-004  8.1267000E-003  8.4970600E-005
 -9.6843700E-004  7.8035900E-003  8.3581500E-005
 -9.4106200E-004  7.4861500E-003  8.2222400E-005
 -9.1344200E-004  7.1746100E-003  8.0903500E-005
 -8.8558500E-004  6.8693500E-003  7.9633800E-005
 -8.5761800E-004  6.5706600E-003  7.8421800E-005
 -8.2953600E-004  6.2788000E-003  7.7274500E-005
 -8.0147300E-004  5.9940900E-003  7.6198100E-005
 -7.7343600E-004  5.7166500E-003  7.5197500E-005
 -7.4553200E-004  5.4468100E-003  7.4276300E-005
 -7.1780700E-004  5.1846100E-003  7.3437000E-005
 -6.9031800E-004  4.9303300E-003  7.2680700E-005
 -6.6315600E-004  4.6839400E-003  7.2007400E-005
 -6.3632700E-004  4.4456500E-003  7.1415700E-005
 -6.0995900E-004  4.2154400E-003  7.0903100E-005
 -5.8401900E-004  3.9933500E-003  7.0465900E-005
 -5.5864700E-004  3.7794100E-003  7.0099100E-005
 -5.3379900E-004  3.5735000E-003  6.9797000E-005
 -5.0959400E-004  3.3756900E-003  6.9552600E-005
 -4.8601300E-004  3.1857500E-003  6.9358100E-005
 -4.6311700E-004  3.0037200E-003  6.9204800E-005
 -4.4093600E-004  2.8293300E-003  6.9083500E-005
 -4.1946300E-004  2.6625500E-003  6.8983800E-005
 -3.9877600E-004  2.5031100E-003  6.8895400E-005
 -3.7881100E-004  2.3508700E-003  6.8806900E-005
 -3.5967100E-004  2.2056700E-003  6.8706900E-005
 -3.4126600E-004  2.0671600E-003  6.8583400E-005
 -3.2368800E-004  1.9353300E-003  6.8424300E-005
 -3.0686400E-004  1.8096600E-003  6.8217300E-005
 -2.9082900E-004  1.6902600E-003  6.7949800E-005
 -2.7556800E-004  1.5764900E-003  6.7609700E-005
 -2.6103200E-004  1.4685000E-003  6.7184100E-005
 -2.4727700E-004  1.3656700E-003  6.6661100E-005
 -2.3417200E-004  1.2680900E-003  6.6028400E-005
 -2.2182700E-004  1.1752400E-003  6.5274200E-005
 -2.1006200E-004  1.0871100E-003  6.4387000E-005
 -1.9899900E-004  1.0032900E-003  6.3355600E-005
 -1.8845500E-004  9.2369900E-004  6.2169600E-005
 -1.7851800E-004  8.4802600E-004  6.0818700E-005
 -1.6904900E-004  7.7618400E-004  5.9293900E-005
 -1.6006000E-004  7.0785300E-004  5.7586600E-005
 -1.5149200E-004  6.4307800E-004  5.5689800E-005
 -1.4325500E-004  5.8140200E-004  5.3597100E-005
 -1.3538300E-004  5.2315500E-004  5.1304100E-005
 -1.2768800E-004  4.6759500E-004  4.8808100E-005
 -1.2028200E-004  4.1548600E-004  4.6108500E-005
 -1.1289500E-004  3.6568500E-004  4.3207800E-005
 -1.0571500E-004  3.1949200E-004  4.0111200E-005
 -9.8375200E-005  2.7528700E-004  3.6828800E-005
 -9.1178100E-005  2.3497800E-004  3.3374800E-005
 -8.3582100E-005  1.9641300E-004  2.9770500E-005
 -7.6144400E-005  1.6217800E-004  2.6044300E-005
 -6.7926500E-005  1.2949200E-004  2.2234600E-005
 -6.0076100E-005  1.0177800E-004  1.8391900E-005
 -5.0769500E-005  7.5405900E-005  1.4580800E-005
 -4.2451500E-005  5.4953300E-005  1.0888100E-005
 -3.1445800E-005  3.5601200E-005  7.4163900E-006
 -2.2978300E-005  2.3279100E-005  4.3137800E-006
 -9.7074700E-006  1.1942000E-005  1.7049400E-006
 -1.6193900E-003  2.2355700E-002  9.3197900E-005
 -1.6030600E-003  2.1999200E-002  9.3229500E-005
 -1.5859600E-003  2.1643000E-002  9.3324100E-005
 -1.5691400E-003  2.1286900E-002  9.3493200E-005
 -1.5522700E-003  2.0930700E-002  9.3742600E-005
 -1.5353500E-003  2.0574900E-002  9.4074600E-005
 -1.5186100E-003  2.0218900E-002  9.4485100E-005
 -1.5017700E-003  1.9863400E-002  9.4968900E-005
 -1.4851600E-003  1.9507500E-002  9.5516300E-005
 -1.4685000E-003  1.9151800E-002  9.6117000E-005
 -1.4520400E-003  1.8795700E-002  9.6757800E-005
 -1.4355600E-003  1.8439700E-002  9.7425100E-005
 -1.4192300E-003  1.8083100E-002  9.8103900E-005
 -1.4028900E-003  1.7726300E-002  9.8779200E-005
 -1.3866400E-003  1.7368800E-002  9.9435400E-005
 -1.3703700E-003  1.7011000E-002  1.0005800E-004
 -1.3540900E-003  1.6652400E-002  1.0063200E-004
 -1.3377400E-003  1.6293200E-002  1.0114400E-004
 -1.3213200E-003  1.5933300E-002  1.0158200E-004
 -1.3047400E-003  1.5572800E-002  1.0193500E-004
 -1.2880000E-003  1.5211500E-002  1.0219300E-004
 -1.2710200E-003  1.4849800E-002  1.0234800E-004
 -1.2538100E-003  1.4487400E-002  1.0239400E-004
 -1.2362500E-003  1.4124700E-002  1.0232700E-004
 -1.2184100E-003  1.3761700E-002  1.0214300E-004
 -1.2001300E-003  1.3398600E-002  1.0184200E-004
 -1.1814900E-003  1.3035500E-002  1.0142500E-004
 -1.1623800E-003  1.2672800E-002  1.0089400E-004
 -1.1428300E-003  1.2310700E-002  1.0025300E-004
 -1.1227900E-003  1.1949400E-002  9.9506600E-005
 -1.1022600E-003  1.1589300E-002  9.8662300E-005
 -1.0812500E-003  1.1230600E-002  9.7727800E-005
 -1.0597100E-003  1.0873800E-002  9.6711700E-005
 -1.0377200E-003  1.0519100E-002  9.5623700E-005
 -1.0152000E-003  1.0167000E-002  9.4474100E-005
 -9.9227600E-004  9.8177900E-003  9.3273700E-005
 -9.6886600E-004  9.4719200E-003  9.2033700E-005
 -9.4509100E-004  9.1297700E-003  9.0765300E-005
 -9.2091100E-004  8.7917100E-003  8.9480000E-005
 -8.9641600E-004  8.4581500E-003  8.8188800E-005
 -8.7162700E-004  8.1294400E-003  8.6902700E-005
 -8.4658200E-004  7.8059900E-003  8.5632100E-005
 -8.2136900E-004  7.4881300E-003  8.4387000E-005
 -7.9597800E-004  7.1762300E-003  8.3176500E-005
 -7.7054300E-004  6.8705900E-003  8.2009100E-005
 -7.4503000E-004  6.5715300E-003  8.0892300E-005
 -7.1958600E-004  6.2793200E-003  7.9832700E-005
 -6.9418500E-004  5.9942200E-003  7.8835800E-005
 -6.6894800E-004  5.7164800E-003  7.7905900E-005
 -6.4389000E-004  5.4462800E-003  7.7046600E-005
 -6.1907400E-004  5.1838100E-003  7.6259700E-005
 -5.9457600E-004  4.9292000E-003  7.5546500E-005
 -5.7039100E-004  4.6825800E-003  7.4906500E-005
 -5.4664700E-004  4.4440200E-003  7.4338500E-005
 -5.2328800E-004  4.2135900E-003  7.3840000E-005
 -5.0046700E-004  3.9913000E-003  7.3407400E-005
 -4.7811100E-004  3.7771600E-003  7.3036000E-005
 -4.5635400E-004  3.5711300E-003  7.2720300E-005
 -4.3514900E-004  3.3731500E-003  7.2453800E-005
 -4.1457200E-004  3.1831300E-003  7.2229000E-005
 -3.9463500E-004  3.0009800E-003  7.2037800E-005
 -3.7533100E-004  2.8265400E-003  7.1871300E-005
 -3.5674100E-004  2.6596900E-003  7.1720200E-005
 -3.3878000E-004  2.5002200E-003  7.1574200E-005
 -3.2158000E-004  2.3479900E-003  7.1422900E-005
 -3.0500900E-004  2.2027400E-003  7.1255500E-005
 -2.8920700E-004  2.0643200E-003  7.1060600E-005
 -2.7404800E-004  1.9324200E-003  7.0827000E-005
 -2.5962600E-004  1.8069100E-003  7.0542700E-005
 -2.4586800E-004  1.6874200E-003  7.0196500E-005
 -2.3278500E-004  1.5738400E-003  6.9776200E-005
 -2.2038600E-004  1.4657800E-003  6.9270300E-005
 -2.0858400E-004  1.3631500E-003  6.8667100E-005
 -1.9746500E-004  1.2655300E-003  6.7955300E-005
 -1.8687200E-004  1.1728600E-003  6.7123500E-005
 -1.7692500E-004  1.0847100E-003  6.6160800E-005
 -1.6745200E-004  1.0010600E-003  6.5056700E-005
 -1.5854100E-004  9.2144900E-004  6.3801100E-005