# vtk DataFile Version 3.0
MMH: CalculiX output 'object.frd' file to 'vtk' format
ASCII
DATASET UNSTRUCTURED_GRID
POINTS 3232 double
 6.00000000E-001 2.10000000E-001 0.00000000E+000
 6.00000000E-001 2.08667000E-001 0.00000000E+000
 6.00000000E-001 2.07333000E-001 0.00000000E+000
 6.00000000E-001 2.06000000E-001 0.00000000E+000
 6.00000000E-001 2.04667000E-001 0.00000000E+000
 6.00000000E-001 2.03333000E-001 0.00000000E+000
 6.00000000E-001 2.02000000E-001 0.00000000E+000
 6.00000000E-001 2.00667000E-001 0.00000000E+000
 6.00000000E-001 1.99333000E-001 0.00000000E+000
 6.00000000E-001 1.98000000E-001 0.00000000E+000
 6.00000000E-001 1.96667000E-001 0.00000000E+000
 6.00000000E-001 1.95333000E-001 0.00000000E+000
 6.00000000E-001 1.94000000E-001 0.00000000E+000
 6.00000000E-001 1.92667000E-001 0.00000000E+000
 6.00000000E-001 1.91333000E-001 0.00000000E+000
 6.00000000E-001 1.90000000E-001 0.00000000E+000
 5.96490000E-001 1.90000000E-001 0.00000000E+000
 5.92980000E-001 1.90000000E-001 0.00000000E+000
 5.89470000E-001 1.90000000E-001 0.00000000E+000
 5.85960000E-001 1.90000000E-001 0.00000000E+000
 5.82449000E-001 1.90000000E-001 0.00000000E+000
 5.78939000E-001 1.90000000E-001 0.00000000E+000
 5.75429000E-001 1.90000000E-001 0.00000000E+000
 5.71919000E-001 1.90000000E-001 0.00000000E+000
 5.68409000E-001 1.90000000E-001 0.00000000E+000
 5.64899000E-001 1.90000000E-001 0.00000000E+000
 5.61389000E-001 1.90000000E-001 0.00000000E+000
 5.57879000E-001 1.90000000E-001 0.00000000E+000
 5.54369000E-001 1.90000000E-001 0.00000000E+000
 5.50859000E-001 1.90000000E-001 0.00000000E+000
 5.47348000E-001 1.90000000E-001 0.00000000E+000
 5.43838000E-001 1.90000000E-001 0.00000000E+000
 5.40328000E-001 1.90000000E-001 0.00000000E+000
 5.36818000E-001 1.90000000E-001 0.00000000E+000
 5.33308000E-001 1.90000000E-001 0.00000000E+000
 5.29798000E-001 1.90000000E-001 0.00000000E+000
 5.26288000E-001 1.90000000E-001 0.00000000E+000
 5.22778000E-001 1.90000000E-001 0.00000000E+000
 5.19268000E-001 1.90000000E-001 0.00000000E+000
 5.15758000E-001 1.90000000E-001 0.00000000E+000
 5.12247000E-001 1.90000000E-001 0.00000000E+000
 5.08737000E-001 1.90000000E-001 0.00000000E+000
 5.05227000E-001 1.90000000E-001 0.00000000E+000
 5.01717000E-001 1.90000000E-001 0.00000000E+000
 4.98207000E-001 1.90000000E-001 0.00000000E+000
 4.94697000E-001 1.90000000E-001 0.00000000E+000
 4.91187000E-001 1.90000000E-001 0.00000000E+000
 4.87677000E-001 1.90000000E-001 0.00000000E+000
 4.84167000E-001 1.90000000E-001 0.00000000E+000
 4.80657000E-001 1.90000000E-001 0.00000000E+000
 4.77146000E-001 1.90000000E-001 0.00000000E+000
 4.73636000E-001 1.90000000E-001 0.00000000E+000
 4.70126000E-001 1.90000000E-001 0.00000000E+000
 4.66616000E-001 1.90000000E-001 0.00000000E+000
 4.63106000E-001 1.90000000E-001 0.00000000E+000
 4.59596000E-001 1.90000000E-001 0.00000000E+000
 4.56086000E-001 1.90000000E-001 0.00000000E+000
 4.52576000E-001 1.90000000E-001 0.00000000E+000
 4.49066000E-001 1.90000000E-001 0.00000000E+000
 4.45556000E-001 1.90000000E-001 0.00000000E+000
 4.42045000E-001 1.90000000E-001 0.00000000E+000
 4.38535000E-001 1.90000000E-001 0.00000000E+000
 4.35025000E-001 1.90000000E-001 0.00000000E+000
 4.31515000E-001 1.90000000E-001 0.00000000E+000
 4.28005000E-001 1.90000000E-001 0.00000000E+000
 4.24495000E-001 1.90000000E-001 0.00000000E+000
 4.20985000E-001 1.90000000E-001 0.00000000E+000
 4.17475000E-001 1.90000000E-001 0.00000000E+000
 4.13965000E-001 1.90000000E-001 0.00000000E+000
 4.10455000E-001 1.90000000E-001 0.00000000E+000
 4.06944000E-001 1.90000000E-001 0.00000000E+000
 4.03434000E-001 1.90000000E-001 0.00000000E+000
 3.99924000E-001 1.90000000E-001 0.00000000E+000
 3.96414000E-001 1.90000000E-001 0.00000000E+000
 3.92904000E-001 1.90000000E-001 0.00000000E+000
 3.89394000E-001 1.90000000E-001 0.00000000E+000
 3.85884000E-001 1.90000000E-001 0.00000000E+000
 3.82374000E-001 1.90000000E-001 0.00000000E+000
 3.78864000E-001 1.90000000E-001 0.00000000E+000
 3.75353000E-001 1.90000000E-001 0.00000000E+000
 3.71843000E-001 1.90000000E-001 0.00000000E+000
 3.68333000E-001 1.90000000E-001 0.00000000E+000
 3.64823000E-001 1.90000000E-001 0.00000000E+000
 3.61313000E-001 1.90000000E-001 0.00000000E+000
 3.57803000E-001 1.90000000E-001 0.00000000E+000
 3.54293000E-001 1.90000000E-001 0.00000000E+000
 3.50783000E-001 1.90000000E-001 0.00000000E+000
 3.47273000E-001 1.90000000E-001 0.00000000E+000
 3.43763000E-001 1.90000000E-001 0.00000000E+000
 3.40252000E-001 1.90000000E-001 0.00000000E+000
 3.36742000E-001 1.90000000E-001 0.00000000E+000
 3.33232000E-001 1.90000000E-001 0.00000000E+000
 3.29722000E-001 1.90000000E-001 0.00000000E+000
 3.26212000E-001 1.90000000E-001 0.00000000E+000
 3.22702000E-001 1.90000000E-001 0.00000000E+000
 3.19192000E-001 1.90000000E-001 0.00000000E+000
 3.15682000E-001 1.90000000E-001 0.00000000E+000
 3.12172000E-001 1.90000000E-001 0.00000000E+000
 3.08661000E-001 1.90000000E-001 0.00000000E+000
 3.05151000E-001 1.90000000E-001 0.00000000E+000
 3.01641000E-001 1.90000000E-001 0.00000000E+000
 2.98131000E-001 1.90000000E-001 0.00000000E+000
 2.94621000E-001 1.90000000E-001 0.00000000E+000
 2.91111000E-001 1.90000000E-001 0.00000000E+000
 2.87601000E-001 1.90000000E-001 0.00000000E+000
 2.84091000E-001 1.90000000E-001 0.00000000E+000
 2.80581000E-001 1.90000000E-001 0.00000000E+000
 2.77071000E-001 1.90000000E-001 0.00000000E+000
 2.73560000E-001 1.90000000E-001 0.00000000E+000
 2.70050000E-001 1.90000000E-001 0.00000000E+000
 2.66540000E-001 1.90000000E-001 0.00000000E+000
 2.63030000E-001 1.90000000E-001 0.00000000E+000
 2.59520000E-001 1.90000000E-001 0.00000000E+000
 2.56010000E-001 1.90000000E-001 0.00000000E+000
 2.52500000E-001 1.90000000E-001 0.00000000E+000
 2.48990000E-001 1.90000000E-001 0.00000000E+000
 2.48990000E-001 1.91333000E-001 0.00000000E+000
 2.48990000E-001 1.92667000E-001 0.00000000E+000
 2.48990000E-001 1.94000000E-001 0.00000000E+000
 2.48990000E-001 1.95333000E-001 0.00000000E+000
 2.48990000E-001 1.96667000E-001 0.00000000E+000
 2.48990000E-001 1.98000000E-001 0.00000000E+000
 2.48990000E-001 1.99333000E-001 0.00000000E+000
 2.48990000E-001 2.00667000E-001 0.00000000E+000
 2.48990000E-001 2.02000000E-001 0.00000000E+000
 2.48990000E-001 2.03333000E-001 0.00000000E+000
 2.48990000E-001 2.04667000E-001 0.00000000E+000
 2.48990000E-001 2.06000000E-001 0.00000000E+000
 2.48990000E-001 2.07333000E-001 0.00000000E+000
 2.48990000E-001 2.08667000E-001 0.00000000E+000
 2.48990000E-001 2.10000000E-001 0.00000000E+000
 2.52500000E-001 2.10000000E-001 0.00000000E+000
 2.56010000E-001 2.10000000E-001 0.00000000E+000
 2.59520000E-001 2.10000000E-001 0.00000000E+000
 2.63030000E-001 2.10000000E-001 0.00000000E+000
 2.66540000E-001 2.10000000E-001 0.00000000E+000
 2.70050000E-001 2.10000000E-001 0.00000000E+000
 2.73560000E-001 2.10000000E-001 0.00000000E+000
 2.77071000E-001 2.10000000E-001 0.00000000E+000
 2.80581000E-001 2.10000000E-001 0.00000000E+000
 2.84091000E-001 2.10000000E-001 0.00000000E+000
 2.87601000E-001 2.10000000E-001 0.00000000E+000
 2.91111000E-001 2.10000000E-001 0.00000000E+000
 2.94621000E-001 2.10000000E-001 0.00000000E+000
 2.98131000E-001 2.10000000E-001 0.00000000E+000
 3.01641000E-001 2.10000000E-001 0.00000000E+000
 3.05151000E-001 2.10000000E-001 0.00000000E+000
 3.08661000E-001 2.10000000E-001 0.00000000E+000
 3.12172000E-001 2.10000000E-001 0.00000000E+000
 3.15682000E-001 2.10000000E-001 0.00000000E+000
 3.19192000E-001 2.10000000E-001 0.00000000E+000
 3.22702000E-001 2.10000000E-001 0.00000000E+000
 3.26212000E-001 2.10000000E-001 0.00000000E+000
 3.29722000E-001 2.10000000E-001 0.00000000E+000
 3.33232000E-001 2.10000000E-001 0.00000000E+000
 3.36742000E-001 2.10000000E-001 0.00000000E+000
 3.40252000E-001 2.10000000E-001 0.00000000E+000
 3.43763000E-001 2.10000000E-001 0.00000000E+000
 3.47273000E-001 2.10000000E-001 0.00000000E+000
 3.50783000E-001 2.10000000E-001 0.00000000E+000
 3.54293000E-001 2.10000000E-001 0.00000000E+000
 3.57803000E-001 2.10000000E-001 0.00000000E+000
 3.61313000E-001 2.10000000E-001 0.00000000E+000
 3.64823000E-001 2.10000000E-001 0.00000000E+000
 3.68333000E-001 2.10000000E-001 0.00000000E+000
 3.71843000E-001 2.10000000E-001 0.00000000E+000
 3.75353000E-001 2.10000000E-001 0.00000000E+000
 3.78864000E-001 2.10000000E-001 0.00000000E+000
 3.82374000E-001 2.10000000E-001 0.00000000E+000
 3.85884000E-001 2.10000000E-001 0.00000000E+000
 3.89394000E-001 2.10000000E-001 0.00000000E+000
 3.92904000E-001 2.10000000E-001 0.00000000E+000
 3.96414000E-001 2.10000000E-001 0.00000000E+000
 3.99924000E-001 2.10000000E-001 0.00000000E+000
 4.03434000E-001 2.10000000E-001 0.00000000E+000
 4.06944000E-001 2.10000000E-001 0.00000000E+000
 4.10455000E-001 2.10000000E-001 0.00000000E+000
 4.13965000E-001 2.10000000E-001 0.00000000E+000
 4.17475000E-001 2.10000000E-001 0.00000000E+000
 4.20985000E-001 2.10000000E-001 0.00000000E+000
 4.24495000E-001 2.10000000E-001 0.00000000E+000
 4.28005000E-001 2.10000000E-001 0.00000000E+000
 4.31515000E-001 2.10000000E-001 0.00000000E+000
 4.35025000E-001 2.10000000E-001 0.00000000E+000
 4.38535000E-001 2.10000000E-001 0.00000000E+000
 4.42045000E-001 2.10000000E-001 0.00000000E+000
 4.45556000E-001 2.10000000E-001 0.00000000E+000
 4.49066000E-001 2.10000000E-001 0.00000000E+000
 4.52576000E-001 2.10000000E-001 0.00000000E+000
 4.56086000E-001 2.10000000E-001 0.00000000E+000
 4.59596000E-001 2.10000000E-001 0.00000000E+000
 4.63106000E-001 2.10000000E-001 0.00000000E+000
 4.66616000E-001 2.10000000E-001 0.00000000E+000
 4.70126000E-001 2.10000000E-001 0.00000000E+000
 4.73636000E-001 2.10000000E-001 0.00000000E+000
 4.77146000E-001 2.10000000E-001 0.00000000E+000
 4.80657000E-001 2.10000000E-001 0.00000000E+000
 4.84167000E-001 2.10000000E-001 0.00000000E+000
 4.87677000E-001 2.10000000E-001 0.00000000E+000
 4.91187000E-001 2.10000000E-001 0.00000000E+000
 4.94697000E-001 2.10000000E-001 0.00000000E+000
[...]
POINT_DATA 3232
VECTORS DISP double
  2.8023300E-004 -1.6555600E-004  8.7447200E-005
  1.4684300E-004 -1.6081500E-004  8.7338100E-005
  9.8982700E-006 -1.5349400E-004  8.7007800E-005
 -1.2496800E-004 -1.4674500E-004  8.6497400E-005
 -2.6074400E-004 -1.3970200E-004  8.5851000E-005
 -3.9589000E-004 -1.3279300E-004  8.5090700E-005
 -5.3128300E-004 -1.2582800E-004  8.4251000E-005
 -6.6650300E-004 -1.1892600E-004  8.3362600E-005
 -8.0181200E-004 -1.1200900E-004  8.2462900E-005
 -9.3700700E-004 -1.0515000E-004  8.1587200E-005
 -1.0723000E-003 -9.8288500E-005  8.0769900E-005
 -1.2075700E-003 -9.1456700E-005  8.0045000E-005
 -1.3428400E-003 -8.4644200E-005  7.9442900E-005
 -1.4781800E-003 -7.7820600E-005  7.8988900E-005
 -1.6135100E-003 -7.1032600E-005  7.8704000E-005
 -1.7488500E-003 -6.4086000E-005  7.8606400E-005
 -1.7310800E-003  2.9177200E-004  7.8537300E-005
 -1.7133400E-003  6.4812000E-004  7.8320700E-005
 -1.6954900E-003  1.0040800E-003  7.7947600E-005
 -1.6775100E-003  1.3602000E-003  7.7411700E-005
 -1.6592200E-003  1.7159900E-003  7.6702000E-005
 -1.6405500E-003  2.0717200E-003  7.5810900E-005
 -1.6213400E-003  2.4268500E-003  7.4731400E-005
 -1.6014600E-003  2.7815100E-003  7.3460400E-005
 -1.5808100E-003  3.1350300E-003  7.1998100E-005
 -1.5592200E-003  3.4874200E-003  7.0347300E-005
 -1.5366500E-003  3.8379100E-003  6.8515100E-005
 -1.5129400E-003  4.1863600E-003  6.6510600E-005
 -1.4880800E-003  4.5319600E-003  6.4346500E-005
 -1.4619300E-003  4.8744000E-003  6.2037400E-005
 -1.4345200E-003  5.2128900E-003  5.9600600E-005
 -1.4057600E-003  5.5469100E-003  5.7054900E-005
 -1.3757000E-003  5.8757800E-003  5.4421000E-005
 -1.3442700E-003  6.1987800E-003  5.1720900E-005
 -1.3115400E-003  6.5153200E-003  4.8977000E-005
 -1.2775200E-003  6.8245600E-003  4.6213100E-005
 -1.2422600E-003  7.1259900E-003  4.3452200E-005
 -1.2058200E-003  7.4187300E-003  4.0718300E-005
 -1.1682500E-003  7.7022700E-003  3.8033900E-005
 -1.1296500E-003  7.9758300E-003  3.5421600E-005
 -1.0900800E-003  8.2388400E-003  3.2902600E-005
 -1.0496600E-003  8.4906800E-003  3.0496800E-005
 -1.0084400E-003  8.7307300E-003  2.8223000E-005
 -9.6655100E-004  8.9585500E-003  2.6097700E-005
 -9.2407500E-004  9.1734900E-003  2.4136300E-005
 -8.8110800E-004  9.3752700E-003  2.2351600E-005
 -8.3775600E-004  9.5632800E-003  2.0755300E-005
 -7.9409200E-004  9.7373400E-003  1.9355700E-005
 -7.5023500E-004  9.8969600E-003  1.8160600E-005
 -7.0623500E-004  1.0042000E-002  1.7174400E-005
 -6.6221000E-004  1.0172100E-002  1.6400400E-005
 -6.1820000E-004  1.0287200E-002  1.5839600E-005
 -5.7431000E-004  1.0387100E-002  1.5491300E-005
 -5.3057400E-004  1.0471700E-002  1.5353200E-005
 -4.8707400E-004  1.0541000E-002  1.5421000E-005
 -4.4385300E-004  1.0594900E-002  1.5690000E-005
 -4.0095900E-004  1.0633600E-002  1.6152800E-005
 -3.5844800E-004  1.0656900E-002  1.6802500E-005
 -3.1633600E-004  1.0665300E-002  1.7629800E-005
 -2.7469200E-004  1.0658600E-002  1.8626000E-005
 -2.3350500E-004  1.0637200E-002  1.9780800E-005
 -1.9285200E-004  1.0601200E-002  2.1083900E-005
 -1.5271000E-004  1.0550800E-002  2.2524800E-005
 -1.1314600E-004  1.0486500E-002  2.4092300E-005
 -7.4148400E-005  1.0408200E-002  2.5776100E-005
 -3.5758700E-005  1.0316700E-002  2.7564700E-005
  2.0030900E-006  1.0211800E-002  2.9448400E-005
  3.9138000E-005  1.0094400E-002  3.1415700E-005
  7.5578700E-005  9.9644100E-003  3.3457900E-005
  1.1137100E-004  9.8225300E-003  3.5564500E-005
  1.4640300E-004  9.6690500E-003  3.7727100E-005
  1.8075300E-004  9.5043500E-003  3.9936700E-005
  2.1427900E-004  9.3290600E-003  4.2185200E-005
  2.4706800E-004  9.1432800E-003  4.4465700E-005
  2.7897000E-004  8.9479500E-003  4.6770400E-005
  3.1005600E-004  8.7429700E-003  4.9094000E-005
  3.4019400E-004  8.5294600E-003  5.1429400E-005
  3.6941200E-004  8.3072800E-003  5.3772600E-005
  3.9760900E-004  8.0775400E-003  5.6117500E-005
  4.2477000E-004  7.8402300E-003  5.8460900E-005
  4.5081300E-004  7.5963100E-003  6.0798000E-005
  4.7569800E-004  7.3460200E-003  6.3125400E-005
  4.9933600E-004  7.0900900E-003  6.5440100E-005
  5.2169300E-004  6.8290200E-003  6.7738000E-005
  5.4263800E-004  6.5633900E-003  7.0017300E-005
  5.6218300E-004  6.2938400E-003  7.2273300E-005
  5.8011000E-004  6.0209200E-003  7.4504700E-005
  5.9652200E-004  5.7452700E-003  7.6706400E-005
  6.1108000E-004  5.4676300E-003  7.8876300E-005
  6.2399700E-004  5.1883600E-003  8.1008800E-005
  6.3480900E-004  4.9086600E-003  8.3100200E-005
  6.4383800E-004  4.6284400E-003  8.5143700E-005
  6.5050300E-004  4.3494500E-003  8.7132800E-005
  6.5522500E-004  4.0710900E-003  8.9058800E-005
  6.5732500E-004  3.7957300E-003  9.0910800E-005
  6.5730000E-004  3.5222100E-003  9.2676200E-005
  6.5440500E-004  3.2535000E-003  9.4338700E-005
  6.4918900E-004  2.9880000E-003  9.5878500E-005
  6.4086200E-004  2.7291600E-003  9.7271400E-005
  6.3001100E-004  2.4749900E-003  9.8486200E-005
  6.1582400E-004  2.2294300E-003  9.9487100E-005
  5.9890500E-004  1.9900600E-003  1.0022500E-004
  5.7846200E-004  1.7614600E-003  1.0064600E-004
  5.5505000E-004  1.5404800E-003  1.0067300E-004
  5.2801600E-004  1.3327400E-003  1.0022500E-004
  4.9769400E-004  1.1338900E-003  9.9184200E-005
  4.6384400E-004  9.5122900E-004  9.7423600E-005
  4.2617900E-004  7.7832800E-004  9.4761800E-005
  3.8547500E-004  6.2529700E-004  9.1003700E-005
  3.3995400E-004  4.8221700E-004  8.5864300E-005
  2.9268200E-004  3.6384800E-004  7.9042400E-005
  2.3853200E-004  2.5429300E-004  7.0073700E-005
  1.8589700E-004  1.7684300E-004  5.8501700E-005
  1.2249100E-004  1.0297100E-004  4.3533400E-005
  7.1782600E-005  7.4131000E-005  2.4635800E-005
  0.0000000E+000  0.0000000E+000  0.0000000E+000
  0.0000000E+000  0.0000000E+000  0.0000000E+000
  0.0000000E+000  0.0000000E+000  0.0000000E+000
  0.0000000E+000  0.0000000E+000  0.0000000E+000
  0.0000000E+000  0.0000000E+000  0.0000000E+000
  0.0000000E+000  0.0000000E+000  0.0000000E+000
  0.0000000E+000  0.0000000E+000  0.0000000E+000
  0.0000000E+000  0.0000000E+000  0.0000000E+000
  0.0000000E+000  0.0000000E+000  0.0000000E+000
  0.0000000E+000  0.0000000E+000  0.0000000E+000
  0.0000000E+000  0.0000000E+000  0.0000000E+000
  0.0000000E+000  0.0000000E+000  0.0000000E+000
  0.0000000E+000  0.0000000E+000  0.0000000E+000
  0.0000000E+000  0.0000000E+000  0.0000000E+000
  0.0000000E+000  0.0000000E+000  0.0000000E+000
  0.0000000E+000  0.0000000E+000  0.0000000E+000
 -7.4490100E-005  7.6159200E-005 -1.4754900E-005
 -1.2468400E-004  1.0292800E-004 -2.4138000E-005
 -1.9038900E-004  1.7540800E-004 -2.9921700E-005
 -2.4485600E-004  2.4997900E-004 -3.2594500E-005
 -3.0240700E-004  3.5723300E-004 -3.2948400E-005
 -3.5362600E-004  4.7186900E-004 -3.1432900E-005
 -4.0450200E-004  6.1215600E-004 -2.8512500E-005
 -4.5154500E-004  7.6090900E-004 -2.4488200E-005
 -4.9694900E-004  9.3079000E-004 -1.9643100E-005
 -5.3970800E-004  1.1090000E-003 -1.4174100E-005
 -5.8028900E-004  1.3047800E-003 -8.2590800E-006
 -6.1881100E-004  1.5082500E-003 -2.0264900E-006
 -6.5495300E-004  1.7262000E-003  4.4104300E-006
 -6.8931700E-004  1.9510300E-003  1.0969300E-005
 -7.2125600E-004  2.1875100E-003  1.7577500E-005
 -7.5153300E-004  2.4299500E-003  2.4183600E-005
 -7.7941100E-004  2.6814800E-003  3.0740900E-005
 -8.0564700E-004  2.9379500E-003  3.7218600E-005
 -8.2954600E-004  3.2012000E-003  4.3586800E-005
 -8.5176200E-004  3.4682600E-003  4.9828600E-005
 -8.7171900E-004  3.7400800E-003  5.5925000E-005
 -8.8991700E-004  4.0144300E-003  6.1867900E-005
 -9.0593300E-004  4.2918000E-003  6.7646400E-005
 -9.2010800E-004  4.5702900E-003  7.3257300E-005
 -9.3216200E-004  4.8502900E-003  7.8695700E-005
 -9.4230300E-004  5.1299700E-003  8.3960900E-005
 -9.5035800E-004  5.4097900E-003  8.9052200E-005
 -9.5645200E-004  5.6878600E-003  9.3970500E-005
 -9.6046900E-004  5.9647600E-003  9.8718200E-005
 -9.6250300E-004  6.2385700E-003  1.0329600E-004
 -9.6244600E-004  6.5099000E-003  1.0771000E-004
 -9.6041000E-004  6.7769600E-003  1.1195900E-004
 -9.5625900E-004  7.0401700E-003  1.1605100E-004
 -9.5014400E-004  7.2980600E-003  1.1998600E-004
 -9.4190300E-004  7.5507200E-003  1.2376900E-004
 -9.3171200E-004  7.7971200E-003  1.2740300E-004
 -9.1940600E-004  8.0369100E-003  1.3089200E-004
 -9.0516400E-004  8.2695300E-003  1.3423900E-004
 -8.8884700E-004  8.4942700E-003  1.3744600E-004
 -8.7060500E-004  8.7108900E-003  1.4051600E-004
 -8.5036200E-004  8.9185000E-003  1.4345100E-004
 -8.2821400E-004  9.1169700E-003  1.4625200E-004
 -8.0416200E-004  9.3054500E-003  1.4892000E-004
 -7.7824900E-004  9.4837300E-003  1.5145600E-004
 -7.5054700E-004  9.6511700E-003  1.5386000E-004
 -7.2106900E-004  9.8073300E-003  1.5613000E-004
 -6.8992700E-004  9.9518800E-003  1.5826700E-004
 -6.5713900E-004  1.0084100E-002  1.6026600E-004
 -6.2282900E-004  1.0204000E-002  1.6212800E-004
 -5.8705200E-004  1.0310700E-002  1.6384600E-004
 -5.4991500E-004  1.0404300E-002  1.6542000E-004
 -5.1153600E-004  1.0484000E-002  1.6684200E-004
 -4.7199000E-004  1.0549800E-002  1.6811000E-004
 -4.3145900E-004  1.0601200E-002  1.6921700E-004
 -3.9000300E-004  1.0637900E-002  1.7015700E-004
 -3.4784400E-004  1.0659800E-002  1.7092600E-004
 -3.0505000E-004  1.0666500E-002  1.7151500E-004
 -2.6185400E-004  1.0658000E-002  1.7191900E-004
 -2.1836100E-004  1.0633800E-002  1.7213000E-004
 -1.7478500E-004  1.0594300E-002  1.7214400E-004
 -1.3129000E-004  1.0538800E-002  1.7195200E-004
 -8.8047200E-005  1.0467900E-002  1.7155200E-004
 -4.5280000E-005  1.0381100E-002  1.7093500E-004
 -3.1251700E-006  1.0278700E-002  1.7010100E-004
  3.8163200E-005  1.0160800E-002  1.6904400E-004
  7.8460500E-005  1.0027500E-002  1.6776300E-004
  1.1752100E-004  9.8790700E-003  1.6625900E-004
  1.5520500E-004  9.7155900E-003  1.6453100E-004
  1.9131500E-004  9.5376900E-003  1.6258500E-004
  2.2567900E-004  9.3452900E-003  1.6042500E-004
  2.5817200E-004  9.1392900E-003  1.5805800E-004
  2.8858900E-004  8.9196700E-003  1.5549400E-004
  3.1688000E-004  8.6873500E-003  1.5274400E-004
  3.4283500E-004  8.4425400E-003  1.4982400E-004
  3.6645800E-004  8.1860300E-003  1.4674900E-004
  3.8756900E-004  7.9183800E-003  1.4353900E-004
  4.0620200E-004  7.6401700E-003  1.4021300E-004
  4.2223700E-004  7.3522800E-003  1.3679500E-004
  4.3572300E-004  7.0550800E-003  1.3331000E-004
  4.4661400E-004  6.7497000E-003  1.2978300E-004
  4.5497200E-004  6.4363800E-003  1.2624100E-004
  4.6081900E-004  6.1163700E-003  1.2271300E-004
  4.6424100E-004  5.7898000E-003  1.1922600E-004
  4.6530800E-004  5.4580200E-003  1.1581100E-004
  4.6414300E-004  5.1210000E-003  1.1249400E-004
  4.6084900E-004  4.7802100E-003  1.0930200E-004
  4.5558300E-004  4.4353600E-003  1.0626300E-004
  4.4847300E-004  4.0880900E-003  1.0339900E-004
  4.3970000E-004  3.7377500E-003  1.0073400E-004
  4.2941500E-004  3.3862400E-003  9.8286200E-005
  4.1780900E-004  3.0323600E-003  9.6072800E-005
  4.0503200E-004  2.6784600E-003  9.4105500E-005
  3.9130900E-004  2.3225900E-003  9.2395300E-005
  3.7671200E-004  1.9677200E-003  9.0944900E-005
  3.6159600E-004  1.6108700E-003  8.9758900E-005
  3.4576400E-004  1.2561200E-003  8.8829200E-005
  3.2999200E-004  8.9869500E-004  8.8154600E-005
  3.1331400E-004  5.4490400E-004  8.7713800E-005
  2.9788600E-004  1.8652500E-004  8.7493700E-005
  1.6195000E-004  1.9560000E-004  8.7387800E-005
  1.7869400E-004  5.5056300E-004  8.7604600E-005
  1.9476900E-004  9.0717900E-004  8.8038800E-005
  2.1080700E-004  1.2624300E-003  8.8700700E-005
  2.2661400E-004  1.6191400E-003  8.9610300E-005
  2.4182800E-004  1.9745600E-003  9.0771300E-005
  2.5668000E-004  2.3308800E-003  9.2189500E-005
  2.7062500E-004  2.6857900E-003  9.3862400E-005
  2.8390800E-004  3.0408400E-003  9.5785800E-005
  2.9600800E-004  3.3940800E-003  9.7950100E-005
  3.0710100E-004  3.7465100E-003  1.0034300E-004
  3.1673800E-004  4.0964500E-003  1.0294800E-004
  3.2502300E-004  4.4444800E-003  1.0574700E-004
  3.3159500E-004  4.7890800E-003  1.0871700E-004
  3.3649700E-004  5.1305000E-003  1.1183600E-004
  3.3945800E-004  5.4673800E-003  1.1507800E-004
  3.4047900E-004  5.7996900E-003  1.1841500E-004
  3.3937300E-004  6.1261700E-003  1.2182100E-004
  3.3612700E-004  6.4466200E-003  1.2526900E-004
  3.3061700E-004  6.7598800E-003  1.2872900E-004
  3.2284800E-004  7.0656200E-003  1.3217400E-004
  3.1273600E-004  7.3627800E-003  1.3557900E-004
  3.0033400E-004  7.6509200E-003  1.3891800E-004
  2.8558200E-004  7.9291300E-003  1.4216700E-004
  2.6858300E-004  8.1968900E-003  1.4530300E-004
  2.4931000E-004  8.4534700E-003  1.4830700E-004
  2.2790200E-004  8.6982300E-003  1.5116000E-004
  2.0437800E-004  8.9306900E-003  1.5384700E-004
  1.7888600E-004  9.1501500E-003  1.5635300E-004
  1.5151900E-004  9.3563000E-003  1.5866600E-004
  1.2239600E-004  9.5484800E-003  1.6077800E-004
  9.1697500E-005  9.7264800E-003  1.6268100E-004
  5.9502600E-005  9.8897800E-003  1.6437100E-004
  2.6065900E-005  1.0038200E-002  1.6584400E-004
 -8.5611400E-006  1.0171400E-002  1.6709800E-004
 -4.4088800E-005  1.0289200E-002  1.6813500E-004
 -8.0462100E-005  1.0391500E-002  1.6895500E-004
 -1.1740300E-004  1.0478100E-002  1.6956200E-004
 -1.5482000E-004  1.0549100E-002  1.6995900E-004
 -1.9248900E-004  1.0604300E-002  1.7015100E-004
 -2.3026100E-004  1.0643900E-002  1.7014500E-004
 -2.6798700E-004  1.0667800E-002  1.6994400E-004
 -3.0546000E-004  1.0676300E-002  1.6955700E-004
 -3.4260200E-004  1.0669500E-002  1.6898900E-004
 -3.7917200E-004  1.0647500E-002  1.6824600E-004
 -4.1513700E-004  1.0610700E-002  1.6733400E-004
 -4.5026100E-004  1.0559200E-002  1.6626000E-004
 -4.8451700E-004  1.0493400E-002  1.6502900E-004
 -5.1771500E-004  1.0413400E-002  1.6364700E-004
 -5.4980000E-004  1.0319900E-002  1.6211700E-004
 -5.8065600E-004  1.0212900E-002  1.6044400E-004
 -6.1018000E-004  1.0093100E-002  1.5863200E-004
 -6.3834100E-004  9.9606100E-003  1.5668400E-004
 -6.6498800E-004  9.8160700E-003  1.5460200E-004
 -6.9016100E-004  9.6597600E-003  1.5238900E-004
 -7.1368400E-004  9.4922200E-003  1.5004400E-004
 -7.3563100E-004  9.3138800E-003  1.4756900E-004
 -7.5584300E-004  9.1251900E-003  1.4496400E-004
 -7.7438500E-004  8.9267100E-003  1.4222700E-004
 -7.9114900E-004  8.7188400E-003  1.3936000E-004
 -8.0615600E-004  8.5022000E-003  1.3635800E-004
 -8.1937700E-004  8.2772100E-003  1.3322100E-004
 -8.3077100E-004  8.0444600E-003  1.2994700E-004
 -8.4038500E-004  7.8045200E-003  1.2653100E-004
 -8.4813000E-004  7.5578100E-003  1.2297200E-004
 -8.5409900E-004  7.3051300E-003  1.1926700E-004
 -8.5819300E-004  7.0467000E-003  1.1541000E-004
 -8.6050500E-004  6.7836000E-003  1.1140000E-004
 -8.6096900E-004  6.5158200E-003  1.0723200E-004
 -8.5963400E-004  6.2446700E-003  1.0290300E-004
 -8.5650600E-004  5.9699900E-003  9.8410400E-005
 -8.5155500E-004  5.6932700E-003  9.3750500E-005
 -8.4487800E-004  5.4142600E-003  8.8921300E-005
 -8.3636100E-004  5.1345600E-003  8.3920900E-005
 -8.2617600E-004  4.8538800E-003  7.8748400E-005
 -8.1415700E-004  4.5739400E-003  7.3404000E-005
 -8.0050400E-004  4.2943700E-003  6.7889200E-005
 -7.8504800E-004  4.0170400E-003  6.2207300E-005
 -7.6796100E-004  3.7414500E-003  5.6363300E-005
 -7.4912800E-004  3.4697600E-003  5.0365500E-005
 -7.2862800E-004  3.2011500E-003  4.4224600E-005
 -7.0646500E-004  2.9382900E-003  3.7955900E-005
 -6.8256200E-004  2.6797700E-003  3.1579200E-005
 -6.5708900E-004  2.4290900E-003  2.5120500E-005
 -6.2976100E-004  2.1839300E-003  1.8613100E-005
 -6.0098100E-004  1.9489300E-003  1.2099200E-005
 -5.7014800E-004  1.7205400E-003  5.6326400E-006
 -5.3805000E-004  1.5049000E-003 -7.1934100E-007
 -5.0354300E-004  1.2968200E-003 -6.8718500E-006
 -4.6812100E-004  1.1044000E-003 -1.2719600E-005
 -4.2962100E-004  9.2030800E-004 -1.8130100E-005
 -3.9092500E-004  7.5519300E-004 -2.2938900E-005
 -3.4785400E-004  5.9881000E-004 -2.6941200E-005
 -3.0609800E-004  4.6537300E-004 -2.9878700E-005
 -2.5741500E-004  3.4046000E-004 -3.1434000E-005
 -2.1324300E-004  2.4344900E-004 -3.1194000E-005
 -1.5721000E-004  1.5423500E-004 -2.8677600E-005
 -1.1291600E-004  9.8291400E-005 -2.3212600E-005
 -4.8176800E-005  4.9733100E-005 -1.4245000E-005
  2.7548500E-005  2.0247000E-004  8.7070600E-005
  4.3229500E-005  5.5808500E-004  8.7286600E-005
  5.9893000E-005  9.1403800E-004  8.7698300E-005
  7.5843000E-005  1.2701200E-003  8.8323700E-005
  9.1710300E-005  1.6261500E-003  8.9176200E-005
  1.0723100E-004  1.9824100E-003  9.0265000E-005
  1.2214300E-004  2.3381600E-003  9.1592300E-005
  1.3663600E-004  2.6938300E-003  9.3158200E-005
  1.5019800E-004  3.0484400E-003  9.4957100E-005
  1.6309700E-004  3.4023500E-003  9.6981200E-005
  1.7480500E-004  3.7544700E-003  9.9218000E-005
  1.8555100E-004  4.1049900E-003  1.0165300E-004
  1.9486800E-004  4.4528100E-003  1.0426800E-004
  2.0292300E-004  4.7979100E-003  1.0704300E-004
  2.0933300E-004  5.1392000E-003  1.0995500E-004
  2.1420600E-004  5.4764900E-003  1.1298200E-004
  2.1724900E-004  5.8087100E-003  1.1609700E-004
  2.1853000E-004  6.1355300E-003  1.1927600E-004
  2.1783100E-004  6.4559200E-003  1.2249300E-004
  2.1521300E-004  6.7694400E-003  1.2572200E-004
  2.1050900E-004  7.0751300E-003  1.2893600E-004
  2.0380700E-004  7.3724700E-003  1.3211300E-004
  1.9496700E-004  7.6605800E-003  1.3522700E-004
  1.8412300E-004  7.9388800E-003  1.3825800E-004
  1.7116000E-004  8.2066300E-003  1.4118400E-004
  1.5625000E-004  8.4632000E-003  1.4398600E-004
  1.3932000E-004  8.7079700E-003  1.4664900E-004
  1.2055100E-004  8.9403500E-003  1.4915600E-004
  9.9943100E-005  9.1598100E-003  1.5149600E-004
  7.7646500E-005  9.3658500E-003  1.5365800E-004
  5.3761500E-005  9.5580100E-003  1.5563200E-004
  2.8379500E-005  9.7358800E-003  1.5741300E-004
  1.7059200E-006  9.8991300E-003  1.5899600E-004
 -2.6226900E-005  1.0047400E-002  1.6037800E-004
 -5.5138200E-005  1.0180500E-002  1.6155800E-004
 -8.5022900E-005  1.0298300E-002  1.6253600E-004
 -1.1558000E-004  1.0400400E-002  1.6331400E-004
 -1.4678400E-004  1.0487000E-002  1.6389400E-004
 -1.7837400E-004  1.0557800E-002  1.6428000E-004
 -2.1026100E-004  1.0612900E-002  1.6447700E-004
 -2.4226800E-004  1.0652400E-002  1.6448800E-004
 -2.7422500E-004  1.0676200E-002  1.6432100E-004
 -3.0604900E-004  1.0684600E-002  1.6397900E-004
 -3.3750100E-004  1.0677700E-002  1.6347000E-004
 -3.6857400E-004  1.0655700E-002  1.6279800E-004
 -3.9900000E-004  1.0618700E-002  1.6196900E-004
 -4.2880000E-004  1.0567200E-002  1.6098900E-004
 -4.5773400E-004  1.0501300E-002  1.5986300E-004
 -4.8580100E-004  1.0421300E-002  1.5859400E-004
 -5.1283700E-004  1.0327700E-002  1.5718700E-004
 -5.3877700E-004  1.0220700E-002  1.5564600E-004
 -5.6356200E-004  1.0100700E-002  1.5397400E-004
 -5.8705600E-004  9.9682700E-003  1.5217400E-004
 -6.0929200E-004  9.8236100E-003  1.5024600E-004
 -6.3008800E-004  9.6672800E-003  1.4819300E-004
 -6.4953100E-004  9.4996500E-003  1.4601600E-004
 -6.6743900E-004  9.3212500E-003  1.4371500E-004
 -6.8389900E-004  9.1325000E-003  1.4128900E-004
 -6.9878300E-004  8.9339300E-003  1.3873800E-004
 -7.1212300E-004  8.7259800E-003  1.3606000E-004
 -7.2388700E-004  8.5092400E-003  1.3325500E-004
 -7.3402200E-004  8.2841300E-003  1.3031800E-004
 -7.4260500E-004  8.0513000E-003  1.2724900E-004
 -7.4949900E-004  7.8111500E-003  1.2404400E-004
 -7.5486400E-004  7.5644000E-003  1.2070000E-004
 -7.5852000E-004  7.3114000E-003  1.1721400E-004
 -7.6065800E-004  7.0529800E-003  1.1358300E-004
 -7.6110900E-004  6.7894300E-003  1.0980300E-004
 -7.6003700E-004  6.5217000E-003  1.0586900E-004
 -7.5733300E-004  6.2499800E-003  1.0178100E-004
 -7.5309300E-004  5.9753700E-003  9.7532300E-005
 -7.4729500E-004  5.6979700E-003  9.3122100E-005
 -7.3995600E-004  5.4190300E-003  8.8547400E-005
 -7.3112300E-004  5.1385300E-003  8.3806500E-005
 -7.2077200E-004  4.8579400E-003  7.8898100E-005
 -7.0896300E-004  4.5770600E-003  7.3822400E-005
 -6.9570100E-004  4.2976000E-003  6.8580600E-005
 -6.8097100E-004  4.0191600E-003  6.3175400E-005