# vtk DataFile Version 3.0
MMH: CalculiX output 'object.frd' file to 'vtk' format
ASCII
DATASET UNSTRUCTURED_GRID
POINTS 3232 double
 6.00000000E-001 2.10000000E-001 0.00000000E+000
 6.00000000E-001 2.08667000E-001 0.00000000E+000
 6.00000000E-001 2.07333000E-001 0.00000000E+000
 6.00000000E-001 2.06000000E-001 0.00000000E+000
 6.00000000E-001 2.04667000E-001 0.00000000E+000
 6.00000000E-001 2.03333000E-001 0.00000000E+000
 6.00000000E-001 2.02000000E-001 0.00000000E+000
 6.00000000E-001 2.00667000E-001 0.00000000E+000
 6.00000000E-001 1.99333000E-001 0.00000000E+000
 6.00000000E-001 1.98000000E-001 0.00000000E+000
 6.00000000E-001 1.96667000E-001 0.00000000E+000
 6.00000000E-001 1.95333000E-001 0.00000000E+000
 6.00000000E-001 1.94000000E-001 0.00000000E+000
 6.00000000E-001 1.92667000E-001 0.00000000E+000
 6.00000000E-001 1.91333000E-001 0.00000000E+000
 6.00000000E-001 1.90000000E-001 0.00000000E+000
 5.96490000E-001 1.90000000E-001 0.00000000E+000
 5.92980000E-001 1.90000000E-001 0.00000000E+000
 5.89470000E-001 1.90000000E-001 0.00000000E+000
 5.85960000E-001 1.90000000E-001 0.00000000E+000
 5.82449000E-001 1.90000000E-001 0.00000000E+000
 5.78939000E-001 1.90000000E-001 0.00000000E+000
 5.75429000E-001 1.90000000E-001 0.00000000E+000
 5.71919000E-001 1.90000000E-001 0.00000000E+000
 5.68409000E-001 1.90000000E-001 0.00000000E+000
 5.64899000E-001 1.90000000E-001 0.00000000E+000
 5.61389000E-001 1.90000000E-001 0.00000000E+000
 5.57879000E-001 1.90000000E-001 0.00000000E+000
 5.54369000E-001 1.90000000E-001 0.00000000E+000
 5.50859000E-001 1.90000000E-001 0.00000000E+000
 5.47348000E-001 1.90000000E-001 0.00000000E+000
 5.43838000E-001 1.90000000E-001 0.00000000E+000
 5.40328000E-001 1.90000000E-001 0.00000000E+000
 5.36818000E-001 1.90000000E-001 0.00000000E+000
 5.33308000E-001 1.90000000E-001 0.00000000E+000
 5.29798000E-001 1.90000000E-001 0.00000000E+000
 5.26288000E-001 1.90000000E-001 0.00000000E+000
 5.22778000E-001 1.90000000E-001 0.00000000E+000
 5.19268000E-001 1.90000000E-001 0.00000000E+000
 5.15758000E-001 1.90000000E-001 0.00000000E+000
 5.12247000E-001 1.90000000E-001 0.00000000E+000
 5.08737000E-001 1.90000000E-001 0.00000000E+000
 5.05227000E-001 1.90000000E-001 0.00000000E+000
 5.01717000E-001 1.90000000E-001 0.00000000E+000
 4.98207000E-001 1.90000000E-001 0.00000000E+000
 4.94697000E-001 1.90000000E-001 0.00000000E+000
 4.91187000E-001 1.90000000E-001 0.00000000E+000
 4.87677000E-001 1.90000000E-001 0.00000000E+000
 4.84167000E-001 1.90000000E-001 0.00000000E+000
 4.80657000E-001 1.90000000E-001 0.00000000E+000
 4.77146000E-001 1.90000000E-001 0.00000000E+000
 4.73636000E-001 1.90000000E-001 0.00000000E+000
 4.70126000E-001 1.90000000E-001 0.00000000E+000
 4.66616000E-001 1.90000000E-001 0.00000000E+000
 4.63106000E-001 1.90000000E-001 0.00000000E+000
 4.59596000E-001 1.90000000E-001 0.00000000E+000
 4.56086000E-001 1.90000000E-001 0.00000000E+000
 4.52576000E-001 1.90000000E-001 0.00000000E+000
 4.49066000E-001 1.90000000E-001 0.00000000E+000
 4.45556000E-001 1.90000000E-001 0.00000000E+000
 4.42045000E-001 1.90000000E-001 0.00000000E+000
 4.38535000E-001 1.90000000E-001 0.00000000E+000
 4.35025000E-001 1.90000000E-001 0.00000000E+000
 4.31515000E-001 1.90000000E-001 0.00000000E+000
 4.28005000E-001 1.90000000E-001 0.00000000E+000
 4.24495000E-001 1.90000000E-001 0.00000000E+000
 4.20985000E-001 1.90000000E-001 0.00000000E+000
 4.17475000E-001 1.90000000E-001 0.00000000E+000
 4.13965000E-001 1.90000000E-001 0.00000000E+000
 4.10455000E-001 1.90000000E-001 0.00000000E+000
 4.06944000E-001 1.90000000E-001 0.00000000E+000
 4.03434000E-001 1.90000000E-001 0.00000000E+000
 3.99924000E-001 1.90000000E-001 0.00000000E+000
 3.96414000E-001 1.90000000E-001 0.00000000E+000
 3.92904000E-001 1.90000000E-001 0.00000000E+000
 3.89394000E-001 1.90000000E-001 0.00000000E+000
 3.85884000E-001 1.90000000E-001 0.00000000E+000
 3.82374000E-001 1.90000000E-001 0.00000000E+000
 3.78864000E-001 1.90000000E-001 0.00000000E+000
 3.75353000E-001 1.90000000E-001 0.00000000E+000
 3.71843000E-001 1.90000000E-001 0.00000000E+000
 3.68333000E-001 1.90000000E-001 0.00000000E+000
 3.64823000E-001 1.90000000E-001 0.00000000E+000
 3.61313000E-001 1.90000000E-001 0.00000000E+000
 3.57803000E-001 1.90000000E-001 0.00000000E+000
 3.54293000E-001 1.90000000E-001 0.00000000E+000
 3.50783000E-001 1.90000000E-001 0.00000000E+000
 3.47273000E-001 1.90000000E-001 0.00000000E+000
 3.43763000E-001 1.90000000E-001 0.00000000E+000
 3.40252000E-001 1.90000000E-001 0.00000000E+000
 3.36742000E-001 1.90000000E-001 0.00000000E+000
 3.33232000E-001 1.90000000E-001 0.00000000E+000
 3.29722000E-001 1.90000000E-001 0.00000000E+000
 3.26212000E-001 1.90000000E-001 0.00000000E+000
 3.22702000E-001 1.90000000E-001 0.00000000E+000
 3.19192000E-001 1.90000000E-001 0.00000000E+000
 3.15682000E-001 1.90000000E-001 0.00000000E+000
 3.12172000E-001 1.90000000E-001 0.00000000E+000
 3.08661000E-001 1.90000000E-001 0.00000000E+000
 3.05151000E-001 1.90000000E-001 0.00000000E+000
 3.01641000E-001 1.90000000E-001 0.00000000E+000
 2.98131000E-001 1.90000000E-001 0.00000000E+000
 2.94621000E-001 1.90000000E-001 0.00000000E+000
 2.91111000E-001 1.90000000E-001 0.00000000E+000
 2.87601000E-001 1.90000000E-001 0.00000000E+000
 2.84091000E-001 1.90000000E-001 0.00000000E+000
 2.80581000E-001 1.90000000E-001 0.00000000E+000
 2.77071000E-001 1.90000000E-001 0.00000000E+000
 2.73560000E-001 1.90000000E-001 0.00000000E+000
 2.70050000E-001 1.90000000E-001 0.00000000E+000
 2.66540000E-001 1.90000000E-001 0.00000000E+000
 2.63030000E-001 1.90000000E-001 0.00000000E+000
 2.59520000E-001 1.90000000E-001 0.00000000E+000
 2.56010000E-001 1.90000000E-001 0.00000000E+000
 2.52500000E-001 1.90000000E-001 0.00000000E+000
 2.48990000E-001 1.90000000E-001 0.00000000E+000
 2.48990000E-001 1.91333000E-001 0.00000000E+000
 2.48990000E-001 1.92667000E-001 0.00000000E+000
 2.48990000E-001 1.94000000E-001 0.00000000E+000
 2.48990000E-001 1.95333000E-001 0.00000000E+000
 2.48990000E-001 1.96667000E-001 0.00000000E+000
 2.48990000E-001 1.98000000E-001 0.00000000E+000
 2.48990000E-001 1.99333000E-001 0.00000000E+000
 2.48990000E-001 2.00667000E-001 0.00000000E+000
 2.48990000E-001 2.02000000E-001 0.00000000E+000
 2.48990000E-001 2.03333000E-001 0.00000000E+000
 2.48990000E-001 2.04667000E-001 0.00000000E+000
 2.48990000E-001 2.06000000E-001 0.00000000E+000
 2.48990000E-001 2.07333000E-001 0.00000000E+000
 2.48990000E-001 2.08667000E-001 0.00000000E+000
 2.48990000E-001 2.10000000E-001 0.00000000E+000
 2.52500000E-001 2.10000000E-001 0.00000000E+000
 2.56010000E-001 2.10000000E-001 0.00000000E+000
 2.59520000E-001 2.10000000E-001 0.00000000E+000
 2.63030000E-001 2.10000000E-001 0.00000000E+000
 2.66540000E-001 2.10000000E-001 0.00000000E+000
 2.70050000E-001 2.10000000E-001 0.00000000E+000
 2.73560000E-001 2.10000000E-001 0.00000000E+000
 2.77071000E-001 2.10000000E-001 0.00000000E+000
 2.80581000E-001 2.10000000E-001 0.00000000E+000
 2.84091000E-001 2.10000000E-001 0.00000000E+000
 2.87601000E-001 2.10000000E-001 0.00000000E+000
 2.91111000E-001 2.10000000E-001 0.00000000E+000
 2.94621000E-001 2.10000000E-001 0.00000000E+000
 2.98131000E-001 2.10000000E-001 0.00000000E+000
 3.01641000E-001 2.10000000E-001 0.00000000E+000
 3.05151000E-001 2.10000000E-001 0.00000000E+000
 3.08661000E-001 2.10000000E-001 0.00000000E+000
 3.12172000E-001 2.10000000E-001 0.00000000E+000
 3.15682000E-001 2.10000000E-001 0.00000000E+000
 3.19192000E-001 2.10000000E-001 0.00000000E+000
 3.22702000E-001 2.10000000E-001 0.00000000E+000
 3.26212000E-001 2.10000000E-001 0.00000000E+000
 3.29722000E-001 2.10000000E-001 0.00000000E+000
 3.33232000E-001 2.10000000E-001 0.00000000E+000
 3.36742000E-001 2.10000000E-001 0.00000000E+000
 3.40252000E-001 2.10000000E-001 0.00000000E+000
 3.43763000E-001 2.10000000E-001 0.00000000E+000
 3.47273000E-001 2.10000000E-001 0.00000000E+000
 3.50783000E-001 2.10000000E-001 0.00000000E+000
 3.54293000E-001 2.10000000E-001 0.00000000E+000
 3.57803000E-001 2.10000000E-001 0.00000000E+000
 3.61313000E-001 2.10000000E-001 0.00000000E+000
 3.64823000E-001 2.10000000E-001 0.00000000E+000
 3.68333000E-001 2.10000000E-001 0.00000000E+000
 3.71843000E-001 2.10000000E-001 0.00000000E+000
 3.75353000E-001 2.10000000E-001 0.00000000E+000
 3.78864000E-001 2.10000000E-001 0.00000000E+000
 3.82374000E-001 2.10000000E-001 0.00000000E+000
 3.85884000E-001 2.10000000E-001 0.00000000E+000
 3.89394000E-001 2.10000000E-001 0.00000000E+000
 3.92904000E-001 2.10000000E-001 0.00000000E+000
 3.96414000E-001 2.10000000E-001 0.00000000E+000
 3.99924000E-001 2.10000000E-001 0.00000000E+000
 4.03434000E-001 2.10000000E-001 0.00000000E+000
 4.06944000E-001 2.10000000E-001 0.00000000E+000
 4.10455000E-001 2.10000000E-001 0.00000000E+000
 4.13965000E-001 2.10000000E-001 0.00000000E+000
 4.17475000E-001 2.10000000E-001 0.00000000E+000
 4.20985000E-001 2.10000000E-001 0.00000000E+000
 4.24495000E-001 2.10000000E-001 0.00000000E+000
 4.28005000E-001 2.10000000E-001 0.00000000E+000
 4.31515000E-001 2.10000000E-001 0.00000000E+000
 4.35025000E-001 2.10000000E-001 0.00000000E+000
 4.38535000E-001 2.10000000E-001 0.00000000E+000
 4.42045000E-001 2.10000000E-001 0.00000000E+000
 4.45556000E-001 2.10000000E-001 0.00000000E+000
 4.49066000E-001 2.10000000E-001 0.00000000E+000
 4.52576000E-001 2.10000000E-001 0.00000000E+000
 4.56086000E-001 2.10000000E-001 0.00000000E+000
 4.59596000E-001 2.10000000E-001 0.00000000E+000
 4.63106000E-001 2.10000000E-001 0.00000000E+000
 4.66616000E-001 2.10000000E-001 0.00000000E+000
 4.70126000E-001 2.10000000E-001 0.00000000E+000
 4.73636000E-001 2.10000000E-001 0.00000000E+000
 4.77146000E-001 2.10000000E-001 0.00000000E+000
 4.80657000E-001 2.10000000E-001 0.00000000E+000
 4.84167000E-001 2.10000000E-001 0.00000000E+000
 4.87677000E-001 2.10000000E-001 0.00000000E+000
 4.91187000E-001 2.10000000E-001 0.00000000E+000
 4.94697000E-001 2.10000000E-001 0.00000000E+000
[...]
POINT_DATA 3232
VECTORS DISP double
 -8.0446000E-003  3.1547900E-002 -1.9412100E-005
 -7.6680000E-003  3.1602200E-002 -1.9299400E-005
 -7.2906400E-003  3.1656600E-002 -1.8960200E-005
 -6.9137300E-003  3.1710900E-002 -1.8410100E-005
 -6.5365800E-003  3.1765300E-002 -1.7677400E-005
 -6.1595800E-003  3.1819700E-002 -1.6793500E-005
 -5.7825200E-003  3.1874100E-002 -1.5797000E-005
 -5.4055300E-003  3.1928500E-002 -1.4729500E-005
 -5.0284400E-003  3.1983000E-002 -1.3636100E-005
 -4.6514600E-003  3.2037500E-002 -1.2562200E-005
 -4.2743500E-003  3.2092000E-002 -1.1553000E-005
 -3.8973300E-003  3.2146500E-002 -1.0650700E-005
 -3.5200900E-003  3.2201200E-002 -9.8956100E-006
 -3.1431400E-003  3.2255600E-002 -9.3194400E-006
 -2.7654600E-003  3.2310500E-002 -8.9571700E-006
 -2.3889300E-003  3.2364200E-002 -8.8356400E-006
 -2.2457300E-003  3.1372500E-002 -8.7423600E-006
 -2.1030800E-003  3.0378700E-002 -8.4441200E-006
 -1.9603100E-003  2.9386400E-002 -7.9291200E-006
 -1.8178700E-003  2.8392800E-002 -7.1878400E-006
 -1.6758500E-003  2.7400100E-002 -6.2082700E-006
 -1.5343700E-003  2.6406700E-002 -4.9839900E-006
 -1.3937400E-003  2.5414100E-002 -3.5062700E-006
 -1.2540600E-003  2.4421400E-002 -1.7705300E-006
 -1.1156900E-003  2.3429800E-002  2.2768400E-007
 -9.7878400E-004  2.2438800E-002  2.4896700E-006
 -8.4373900E-004  2.1449500E-002  5.0149500E-006
 -7.1075400E-004  2.0461700E-002  7.8005100E-006
 -5.8023700E-004  1.9476500E-002  1.0841000E-005
 -4.5245300E-004  1.8494000E-002  1.4128400E-005
 -3.2779500E-004  1.7515200E-002  1.7652900E-005
 -2.0658500E-004  1.6540500E-002  2.1401700E-005
 -8.9196900E-005  1.5570800E-002  2.5360400E-005
  2.4014900E-005  1.4606900E-002  2.9512000E-005
  1.3269200E-004  1.3649700E-002  3.3838300E-005
  2.3647400E-004  1.2700000E-002  3.8318500E-005
  3.3502300E-004  1.1758900E-002  4.2930800E-005
  4.2799000E-004  1.0827300E-002  4.7652000E-005
  5.1507700E-004  9.9063500E-003  5.2457500E-005
  5.9594900E-004  8.9971000E-003  5.7322000E-005
  6.7037600E-004  8.1006200E-003  6.2219300E-005
  7.3803900E-004  7.2181700E-003  6.7123100E-005
  7.9879600E-004  6.3507400E-003  7.2006800E-005
  8.5236100E-004  5.4997100E-003  7.6843400E-005
  8.9868300E-004  4.6659500E-003  8.1607300E-005
  9.3753900E-004  3.8509700E-003  8.6271900E-005
  9.6894600E-004  3.0555400E-003  9.0813300E-005
  9.9279400E-004  2.2811700E-003  9.5206600E-005
  1.0091300E-003  1.5286300E-003  9.9430400E-005
  1.0180100E-003  7.9923000E-004  1.0346300E-004
  1.0194800E-003  9.3875400E-005  1.0728400E-004
  1.0137600E-003 -5.8649600E-004  1.1087700E-004
  1.0009200E-003 -1.2407500E-003  1.1422600E-004
  9.8131600E-004 -1.8684000E-003  1.1731600E-004
  9.5506500E-004 -2.4681300E-003  1.2013500E-004
  9.2260700E-004 -3.0398500E-003  1.2267400E-004
  8.8415600E-004 -3.5822100E-003  1.2492200E-004
  8.4016000E-004 -4.0953500E-003  1.2687600E-004
  7.9097200E-004 -4.5781400E-003  1.2852800E-004
  7.3700400E-004 -5.0306700E-003  1.2987700E-004
  6.7874300E-004 -5.4523300E-003  1.3092100E-004
  6.1655800E-004 -5.8429600E-003  1.3165800E-004
  5.5102900E-004 -6.2025700E-003  1.3209100E-004
  4.8250700E-004 -6.5307400E-003  1.3222000E-004
  4.1160100E-004 -6.8280500E-003  1.3205000E-004
  3.3868100E-004 -7.0939200E-003  1.3158200E-004
  2.6431700E-004 -7.3293200E-003  1.3082100E-004
  1.8893000E-004 -7.5337500E-003  1.2977000E-004
  1.1300900E-004 -7.7083000E-003  1.2843700E-004
  3.7019700E-005 -7.8528000E-003  1.2682300E-004
 -3.8628000E-005 -7.9681900E-003  1.2493600E-004
 -1.1346200E-004 -8.0548400E-003  1.2278100E-004
 -1.8712300E-004 -8.1134000E-003  1.2036100E-004
 -2.5918600E-004 -8.1447800E-003  1.1768400E-004
 -3.2930500E-004 -8.1494200E-003  1.1475200E-004
 -3.9714900E-004 -8.1286000E-003  1.1157400E-004
 -4.6235600E-004 -8.0827300E-003  1.0815100E-004
 -5.2472000E-004 -8.0132200E-003  1.0449100E-004
 -5.8385300E-004 -7.9207000E-003  1.0059800E-004
 -6.3966900E-004 -7.8064300E-003  9.6477100E-005
 -6.9178200E-004 -7.6714900E-003  9.2133500E-005
 -7.4019200E-004 -7.5167700E-003  8.7572600E-005
 -7.8454900E-004 -7.3439200E-003  8.2800000E-005
 -8.2490400E-004 -7.1534200E-003  7.7821100E-005
 -8.6097100E-004 -6.9474300E-003  7.2642900E-005
 -8.9282800E-004 -6.7260900E-003  6.7270600E-005
 -9.2026000E-004 -6.4919600E-003  6.1713200E-005
 -9.4337100E-004 -6.2449800E-003  5.5977000E-005
 -9.6199400E-004 -5.9878800E-003  5.0072100E-005
 -9.7628500E-004 -5.7206000E-003  4.4007900E-005
 -9.8607800E-004 -5.4459300E-003  3.7795500E-005
 -9.9162400E-004 -5.1638300E-003  3.1448400E-005
 -9.9269900E-004 -4.8771100E-003  2.4980200E-005
 -9.8969500E-004 -4.5857200E-003  1.8409500E-005
 -9.8227500E-004 -4.2926200E-003  1.1753700E-005
 -9.7100100E-004 -3.9975200E-003  5.0386200E-006
 -9.5539400E-004 -3.7038200E-003 -1.7120000E-006
 -9.3618600E-004 -3.4106000E-003 -8.4627800E-006
 -9.1275600E-004 -3.1221100E-003 -1.5179600E-005
 -8.8596900E-004 -2.8363900E-003 -2.1813900E-005
 -8.5510800E-004 -2.5589400E-003 -2.8315500E-005
 -8.2108500E-004 -2.2863500E-003 -3.4616300E-005
 -7.8318200E-004 -2.0257400E-003 -4.0642600E-005
 -7.4221500E-004 -1.7718600E-003 -4.6295900E-005
 -6.9764200E-004 -1.5338900E-003 -5.1467500E-005
 -6.4991400E-004 -1.3042600E-003 -5.6012000E-005
 -5.9902900E-004 -1.0947000E-003 -5.9768700E-005
 -5.4454000E-004 -8.9468000E-004 -6.2518100E-005
 -4.8773400E-004 -7.1937700E-004 -6.4021500E-005
 -4.2614600E-004 -5.5405100E-004 -6.3939400E-005
 -3.6399200E-004 -4.1910800E-004 -6.1915300E-005
 -2.9431100E-004 -2.9297200E-004 -5.7402900E-005
 -2.2838500E-004 -2.0565900E-004 -4.9879200E-005
 -1.4928600E-004 -1.2080800E-004 -3.8423800E-005
 -8.9055100E-005 -8.9954700E-005 -2.2485500E-005
  0.0000000E+000  0.0000000E+000  0.0000000E+000
  0.0000000E+000  0.0000000E+000  0.0000000E+000
  0.0000000E+000  0.0000000E+000  0.0000000E+000
  0.0000000E+000  0.0000000E+000  0.0000000E+000
  0.0000000E+000  0.0000000E+000  0.0000000E+000
  0.0000000E+000  0.0000000E+000  0.0000000E+000
  0.0000000E+000  0.0000000E+000  0.0000000E+000
  0.0000000E+000  0.0000000E+000  0.0000000E+000
  0.0000000E+000  0.0000000E+000  0.0000000E+000
  0.0000000E+000  0.0000000E+000  0.0000000E+000
  0.0000000E+000  0.0000000E+000  0.0000000E+000
  0.0000000E+000  0.0000000E+000  0.0000000E+000
  0.0000000E+000  0.0000000E+000  0.0000000E+000
  0.0000000E+000  0.0000000E+000  0.0000000E+000
  0.0000000E+000  0.0000000E+000  0.0000000E+000
  0.0000000E+000  0.0000000E+000  0.0000000E+000
  8.1813700E-005 -8.3819800E-005  2.3321000E-005
  1.4058000E-004 -1.1734900E-004  4.0074300E-005
  2.1356000E-004 -2.0355700E-004  5.2310900E-005
  2.7410200E-004 -2.9518600E-004  6.0641500E-005
  3.3593000E-004 -4.2442400E-004  6.5971200E-005
  3.8945100E-004 -5.6476400E-004  6.8820200E-005
  4.4037400E-004 -7.3396200E-004  6.9716000E-005
  4.8512400E-004 -9.1519400E-004  6.8999900E-005
  5.2563500E-004 -1.1193500E-003  6.6994800E-005
  5.6093800E-004 -1.3348200E-003  6.3921900E-005
  5.9129400E-004 -1.5684900E-003  5.9987600E-005
  6.1691100E-004 -1.8118300E-003  5.5336400E-005
  6.3736300E-004 -2.0693400E-003  5.0103100E-005
  6.5335400E-004 -2.3343600E-003  4.4384000E-005
  6.6421800E-004 -2.6099300E-003  3.8268200E-005
  6.7084300E-004 -2.8905300E-003  3.1821300E-005
  6.7251800E-004 -3.1783600E-003  2.5103800E-005
  6.7017500E-004 -3.4685800E-003  1.8161900E-005
  6.6313600E-004 -3.7628500E-003  1.1037900E-005
  6.5231600E-004 -4.0568600E-003  3.7665400E-006
  6.3709600E-004 -4.3518000E-003 -3.6215200E-006
  6.1834300E-004 -4.6438900E-003 -1.1098600E-005
  5.9551200E-004 -4.9338200E-003 -1.8640200E-005
  5.6939100E-004 -5.2184000E-003 -2.6223600E-005
  5.3952800E-004 -5.4977800E-003 -3.3827200E-005
  5.0660300E-004 -5.7693900E-003 -4.1431400E-005
  4.7026800E-004 -6.0328500E-003 -4.9015500E-005
  4.3107600E-004 -6.2861800E-003 -5.6561900E-005
  3.8878900E-004 -6.5285500E-003 -6.4050400E-005
  3.4382000E-004 -6.7584400E-003 -7.1463800E-005
  2.9603700E-004 -6.9747800E-003 -7.8781800E-005
  2.4571900E-004 -7.1762900E-003 -8.5987300E-005
  1.9281400E-004 -7.3618800E-003 -9.3060200E-005
  1.3749800E-004 -7.5303300E-003 -9.9982400E-005
  7.9756600E-005 -7.6806900E-003 -1.0673400E-004
  1.9697800E-005 -7.8116800E-003 -1.1329700E-004
 -4.2685800E-005 -7.9225800E-003 -1.1965200E-004
 -1.0732900E-004 -8.0120500E-003 -1.2577800E-004
 -1.7425800E-004 -8.0795800E-003 -1.3165900E-004
 -2.4342600E-004 -8.1238000E-003 -1.3727400E-004
 -3.1489700E-004 -8.1443600E-003 -1.4260400E-004
 -3.8862600E-004 -8.1399900E-003 -1.4763200E-004
 -4.6471600E-004 -8.1103700E-003 -1.5234000E-004
 -5.4312700E-004 -8.0544500E-003 -1.5670900E-004
 -6.2398700E-004 -7.9718700E-003 -1.6072400E-004
 -7.0726700E-004 -7.8618700E-003 -1.6436900E-004
 -7.9310300E-004 -7.7240000E-003 -1.6762800E-004
 -8.8148300E-004 -7.5578100E-003 -1.7048900E-004
 -9.7253600E-004 -7.3628400E-003 -1.7293900E-004
 -1.0662700E-003 -7.1388500E-003 -1.7496700E-004
 -1.1627900E-003 -6.8854500E-003 -1.7656400E-004
 -1.2621200E-003 -6.6025800E-003 -1.7772200E-004
 -1.3643300E-003 -6.2899800E-003 -1.7843600E-004
 -1.4694700E-003 -5.9476900E-003 -1.7870300E-004
 -1.5775600E-003 -5.5756500E-003 -1.7852000E-004
 -1.6886400E-003 -5.1739900E-003 -1.7789000E-004
 -1.8027200E-003 -4.7428600E-003 -1.7681600E-004
 -1.9198100E-003 -4.2824300E-003 -1.7530500E-004
 -2.0398700E-003 -3.7931200E-003 -1.7336400E-004
 -2.1629100E-003 -3.2751500E-003 -1.7100500E-004
 -2.2888600E-003 -2.7291200E-003 -1.6824400E-004
 -2.4176700E-003 -2.1554000E-003 -1.6509400E-004
 -2.5492500E-003 -1.5546900E-003 -1.6157800E-004
 -2.6835200E-003 -9.2753100E-004 -1.5771500E-004
 -2.8203700E-003 -2.7470000E-004 -1.5352900E-004
 -2.9596500E-003  4.0306900E-004 -1.4904800E-004
 -3.1012600E-003  1.1049700E-003 -1.4429700E-004
 -3.2450000E-003  1.8300900E-003 -1.3930800E-004
 -3.3907400E-003  2.5776000E-003 -1.3411100E-004
 -3.5382800E-003  3.3464300E-003 -1.2873900E-004
 -3.6874600E-003  4.1357300E-003 -1.2322300E-004
 -3.8380500E-003  4.9443400E-003 -1.1759900E-004
 -3.9898900E-003  5.7713400E-003 -1.1190000E-004
 -4.1427700E-003  6.6155900E-003 -1.0616000E-004
 -4.2964800E-003  7.4760600E-003 -1.0041100E-004
 -4.4508500E-003  8.3517100E-003 -9.4688300E-005
 -4.6056500E-003  9.2413500E-003 -8.9022400E-005
 -4.7607400E-003  1.0144100E-002 -8.3444300E-005
 -4.9158800E-003  1.1058600E-002 -7.7983700E-005
 -5.0709900E-003  1.1984200E-002 -7.2668000E-005
 -5.2258400E-003  1.2919500E-002 -6.7523500E-005
 -5.3803500E-003  1.3863900E-002 -6.2573500E-005
 -5.5343500E-003  1.4816100E-002 -5.7840300E-005
 -5.6877700E-003  1.5775500E-002 -5.3342700E-005
 -5.8405100E-003  1.6741000E-002 -4.9097800E-005
 -5.9924900E-003  1.7712000E-002 -4.5119800E-005
 -6.1437000E-003  1.8687500E-002 -4.1420400E-005
 -6.2940400E-003  1.9666900E-002 -3.8008800E-005
 -6.4435900E-003  2.0649700E-002 -3.4891000E-005
 -6.5922500E-003  2.1635000E-002 -3.2071300E-005
 -6.7401600E-003  2.2622600E-002 -2.9550200E-005
 -6.8872300E-003  2.3611700E-002 -2.7326800E-005
 -7.0336600E-003  2.4602200E-002 -2.5396800E-005
 -7.1793600E-003  2.5593400E-002 -2.3754500E-005
 -7.3245900E-003  2.6585400E-002 -2.2391700E-005
 -7.4691800E-003  2.7577600E-002 -2.1298600E-005
 -7.6135900E-003  2.8570200E-002 -2.0464800E-005
 -7.7573700E-003  2.9562600E-002 -1.9879300E-005
 -7.9014000E-003  3.0555300E-002 -1.9529700E-005
 -7.5240200E-003  3.0609700E-002 -1.9412500E-005
 -7.3804700E-003  2.9617000E-002 -1.9753200E-005
 -7.2363500E-003  2.8624400E-002 -2.0325600E-005
 -7.0921600E-003  2.7631800E-002 -2.1140000E-005
 -6.9474500E-003  2.6639300E-002 -2.2207600E-005
 -6.8024200E-003  2.5647200E-002 -2.3538300E-005
 -6.6568100E-003  2.4655700E-002 -2.5142000E-005
 -6.5107100E-003  2.3665000E-002 -2.7026200E-005
 -6.3639600E-003  2.2675400E-002 -2.9196900E-005
 -6.2166200E-003  2.1687400E-002 -3.1657900E-005
 -6.0686000E-003  2.0701500E-002 -3.4410700E-005
 -5.9199600E-003  1.9718100E-002 -3.7454100E-005
 -5.7706700E-003  1.8737900E-002 -4.0784500E-005
 -5.6207900E-003  1.7761500E-002 -4.4395800E-005
 -5.4703800E-003  1.6789600E-002 -4.8279200E-005
 -5.3194800E-003  1.5823000E-002 -5.2423300E-005
 -5.1682300E-003  1.4862500E-002 -5.6814200E-005
 -5.0166800E-003  1.3908800E-002 -6.1435400E-005
 -4.8650000E-003  1.2963100E-002 -6.6268300E-005
 -4.7133000E-003  1.2026100E-002 -7.1291500E-005
 -4.5617600E-003  1.1099000E-002 -7.6482000E-005
 -4.4105200E-003  1.0182600E-002 -8.1814300E-005
 -4.2597800E-003  9.2780400E-003 -8.7261600E-005
 -4.1097200E-003  8.3863600E-003 -9.2795100E-005
 -3.9605200E-003  7.5086500E-003 -9.8384500E-005
 -3.8124100E-003  6.6460000E-003 -1.0399900E-004
 -3.6655500E-003  5.7994800E-003 -1.0960600E-004
 -3.5201800E-003  4.9701900E-003 -1.1517300E-004
 -3.3764600E-003  4.1591500E-003 -1.2066700E-004
 -3.2346100E-003  3.3674800E-003 -1.2605500E-004
 -3.0948000E-003  2.5961400E-003 -1.3130400E-004
 -2.9572200E-003  1.8462000E-003 -1.3638100E-004
 -2.8220200E-003  1.1185700E-003 -1.4125500E-004
 -2.6893500E-003  4.1421800E-004 -1.4589500E-004
 -2.5593700E-003 -2.6600100E-004 -1.5027400E-004
 -2.4321700E-003 -9.2124300E-004 -1.5436200E-004
 -2.3078900E-003 -1.5507200E-003 -1.5813600E-004
 -2.1865800E-003 -2.1537500E-003 -1.6157100E-004
 -2.0683400E-003 -2.7296300E-003 -1.6464600E-004
 -1.9532000E-003 -3.2778100E-003 -1.6734200E-004
 -1.8412000E-003 -3.7977300E-003 -1.6964300E-004
 -1.7323600E-003 -4.2889800E-003 -1.7153600E-004
 -1.6266600E-003 -4.7511200E-003 -1.7300800E-004
 -1.5241000E-003 -5.1839000E-003 -1.7405200E-004
 -1.4246300E-003 -5.5870500E-003 -1.7466200E-004
 -1.3282400E-003 -5.9604200E-003 -1.7483300E-004
 -1.2348100E-003 -6.3039200E-003 -1.7456400E-004
 -1.1443300E-003 -6.6175300E-003 -1.7385800E-004
 -1.0566900E-003 -6.9013300E-003 -1.7271600E-004
 -9.7181900E-004 -7.1554100E-003 -1.7114500E-004
 -8.8962100E-004 -7.3800200E-003 -1.6915100E-004
 -8.1000600E-004 -7.5753900E-003 -1.6674500E-004
 -7.3289300E-004 -7.7418800E-003 -1.6393600E-004
 -6.5816800E-004 -7.8798900E-003 -1.6073600E-004
 -5.8577500E-004 -7.9898500E-003 -1.5716000E-004
 -5.1559300E-004 -8.0723800E-003 -1.5322100E-004
 -4.4758300E-004 -8.1279200E-003 -1.4893600E-004
 -3.8164100E-004 -8.1573100E-003 -1.4431900E-004
 -3.1772700E-004 -8.1610100E-003 -1.3939000E-004
 -2.5578700E-004 -8.1400500E-003 -1.3416400E-004
 -1.9576100E-004 -8.0949400E-003 -1.2866100E-004
 -1.3766500E-004 -8.0268300E-003 -1.2289900E-004
 -8.1413000E-005 -7.9363300E-003 -1.1689600E-004
 -2.7094500E-005 -7.8246700E-003 -1.1067200E-004
  2.5392100E-005 -7.6925600E-003 -1.0424400E-004
  7.5899100E-005 -7.5412900E-003 -9.7632700E-005
  1.2452200E-004 -7.3716900E-003 -9.0855900E-005
  1.7107800E-004 -7.1850700E-003 -8.3932800E-005
  2.1563300E-004 -6.9823700E-003 -7.6881800E-005
  2.5799600E-004 -6.7649700E-003 -6.9721600E-005
  2.9818300E-004 -6.5338200E-003 -6.2470500E-005
  3.3600700E-004 -6.2904800E-003 -5.5146900E-005
  3.7144200E-004 -6.0357600E-003 -4.7769000E-005
  4.0429800E-004 -5.7715200E-003 -4.0355700E-005
  4.3452900E-004 -5.4983400E-003 -3.2925200E-005
  4.6191400E-004 -5.2184600E-003 -2.5496900E-005
  4.8643200E-004 -4.9321200E-003 -1.8090600E-005
  5.0780300E-004 -4.6420000E-003 -1.0727200E-005
  5.2606400E-004 -4.3479600E-003 -3.4289500E-006
  5.4085800E-004 -4.0531600E-003  3.7801300E-006
  5.5230100E-004 -3.7570100E-003  1.0873000E-005
  5.5997400E-004 -3.4632200E-003  1.7819900E-005
  5.6404000E-004 -3.1706700E-003  2.4586200E-005
  5.6409400E-004 -2.8836900E-003  3.1132000E-005
  5.6025200E-004 -2.6005000E-003  3.7410000E-005
  5.5227300E-004 -2.3262500E-003  4.3364200E-005
  5.4004200E-004 -2.0582200E-003  4.8926600E-005
  5.2374000E-004 -1.8027100E-003  5.4015200E-005
  5.0269800E-004 -1.5556300E-003  5.8529600E-005
  4.7796500E-004 -1.3249900E-003  6.2346500E-005
  4.4774300E-004 -1.1045700E-003  6.5314500E-005
  4.1473700E-004 -9.0502900E-004  6.7245400E-005
  3.7496900E-004 -7.1686900E-004  6.7907000E-005
  3.3425400E-004 -5.5477100E-004  6.7006600E-005
  2.8441100E-004 -4.0431300E-004  6.4184400E-005
  2.3726300E-004 -2.8617900E-004  5.8971300E-005
  1.7642200E-004 -1.7916400E-004  5.0815800E-005
  1.2613000E-004 -1.1127800E-004  3.8945900E-005
  5.4149200E-005 -5.3728600E-005  2.2691700E-005
 -7.1471600E-003  3.0664000E-002 -1.9065200E-005
 -7.0032400E-003  2.9671300E-002 -1.9382200E-005
 -6.8593900E-003  2.8678600E-002 -1.9916000E-005
 -6.7150700E-003  2.7685900E-002 -2.0674800E-005
 -6.5705700E-003  2.6693300E-002 -2.1669100E-005
 -6.4256000E-003  2.5701000E-002 -2.2908200E-005
 -6.2802800E-003  2.4709200E-002 -2.4401000E-005
 -6.1344500E-003  2.3718200E-002 -2.6154600E-005
 -5.9881900E-003  2.2728300E-002 -2.8174700E-005
 -5.8414100E-003  2.1739800E-002 -3.0464600E-005
 -5.6941600E-003  2.0753400E-002 -3.3025900E-005
 -5.5464500E-003  1.9769400E-002 -3.5857600E-005
 -5.3983100E-003  1.8788500E-002 -3.8956600E-005
 -5.2498400E-003  1.7811300E-002 -4.2317000E-005
 -5.1010400E-003  1.6838500E-002 -4.5930900E-005
 -4.9520900E-003  1.5870800E-002 -4.9787900E-005
 -4.8030300E-003  1.4909200E-002 -5.3874900E-005
 -4.6540300E-003  1.3954300E-002 -5.8177000E-005
 -4.5052100E-003  1.3007200E-002 -6.2676700E-005
 -4.3567500E-003  1.2068800E-002 -6.7354500E-005
 -4.2088000E-003  1.1140000E-002 -7.2188600E-005
 -4.0615400E-003  1.0222000E-002 -7.7155900E-005
 -3.9151800E-003  9.3156200E-003 -8.2230900E-005
 -3.7698900E-003  8.4220700E-003 -8.7387200E-005
 -3.6259100E-003  7.5423600E-003 -9.2596500E-005
 -3.4833900E-003  6.6776500E-003 -9.7829900E-005
 -3.3426000E-003  5.8289800E-003 -1.0305700E-004
 -3.2036800E-003  4.9974700E-003 -1.0824800E-004
 -3.0668600E-003  4.1841700E-003 -1.1337200E-004
 -2.9323100E-003  3.3901700E-003 -1.1839600E-004
 -2.8002300E-003  2.6165100E-003 -1.2329200E-004
 -2.6707700E-003  1.8641800E-003 -1.2802800E-004
 -2.5440800E-003  1.1341900E-003 -1.3257400E-004
 -2.4203300E-003  4.2747000E-004 -1.3690300E-004
 -2.2995800E-003 -2.5508600E-004 -1.4098700E-004
 -2.1820000E-003 -9.1263500E-004 -1.4479900E-004
 -2.0676200E-003 -1.5443800E-003 -1.4831700E-004
 -1.9565400E-003 -2.1495900E-003 -1.5151800E-004
 -1.8487700E-003 -2.7276100E-003 -1.5438200E-004
 -1.7443700E-003 -3.2778100E-003 -1.5689100E-004
 -1.6433200E-003 -3.7996800E-003 -1.5903000E-004
 -1.5456100E-003 -4.2927400E-003 -1.6078500E-004
 -1.4512200E-003 -4.7566200E-003 -1.6214600E-004
 -1.3600800E-003 -5.1909700E-003 -1.6310500E-004
 -1.2721500E-003 -5.5955900E-003 -1.6365500E-004
 -1.1873300E-003 -5.9702800E-003 -1.6379400E-004
 -1.1055500E-003 -6.3149600E-003 -1.6352000E-004
 -1.0266800E-003 -6.6296100E-003 -1.6283400E-004
 -9.5064900E-004 -6.9143000E-003 -1.6173900E-004
 -8.7731900E-004 -7.1691400E-003 -1.6024100E-004
 -8.0657100E-004 -7.3943500E-003 -1.5834600E-004
 -7.3830500E-004 -7.5901800E-003 -1.5606300E-004
 -6.7236200E-004 -7.7570000E-003 -1.5340200E-004
 -6.0867800E-004 -7.8951700E-003 -1.5037400E-004
 -5.4707300E-004 -8.0052200E-003 -1.4699300E-004
 -4.8750700E-004 -8.0876200E-003 -1.4327200E-004
 -4.2980800E-004 -8.1430400E-003 -1.3922500E-004
 -3.7394700E-004 -8.1720300E-003 -1.3487000E-004
 -3.1979000E-004 -8.1754200E-003 -1.3022100E-004
 -2.6729200E-004 -8.1538400E-003 -1.2529600E-004
 -2.1639100E-004 -8.1082500E-003 -1.2011300E-004
 -1.6701400E-004 -8.0393500E-003 -1.1468800E-004
 -1.1917700E-004 -7.9482100E-003 -1.0903900E-004
 -7.2787600E-005 -7.8356200E-003 -1.0318500E-004
 -2.7929500E-005 -7.7027600E-003 -9.7144000E-005
  1.5488900E-005 -7.5504600E-003 -9.0933400E-005
  5.7344200E-005 -7.3800300E-003 -8.4571600E-005
  9.7691200E-005 -7.1923000E-003 -7.8076400E-005
  1.3640600E-004 -6.9887400E-003 -7.1465600E-005
  1.7347300E-004 -6.7701700E-003 -6.4756800E-005
  2.0880000E-004 -6.5382000E-003 -5.7967700E-005
  2.4227800E-004 -6.2935900E-003 -5.1115500E-005
  2.7386700E-004 -6.0381700E-003 -4.4218000E-005
  3.0337000E-004 -5.7725700E-003 -3.7292400E-005
  3.3078300E-004 -5.4988500E-003 -3.0356500E-005
  3.5585000E-004 -5.2175000E-003 -2.3428300E-005
  3.7858700E-004 -4.9308500E-003 -1.6526500E-005
  3.9871200E-004 -4.6391300E-003 -9.6708300E-006