# vtk DataFile Version 3.0
MMH: CalculiX output 'object.frd' file to 'vtk' format
ASCII
DATASET UNSTRUCTURED_GRID
POINTS 3232 double
 6.00000000E-001 2.10000000E-001 0.00000000E+000
 6.00000000E-001 2.08667000E-001 0.00000000E+000
 6.00000000E-001 2.07333000E-001 0.00000000E+000
 6.00000000E-001 2.06000000E-001 0.00000000E+000
 6.00000000E-001 2.04667000E-001 0.00000000E+000
 6.00000000E-001 2.03333000E-001 0.00000000E+000
 6.00000000E-001 2.02000000E-001 0.00000000E+000
 6.00000000E-001 2.00667000E-001 0.00000000E+000
 6.00000000E-001 1.99333000E-001 0.00000000E+000
 6.00000000E-001 1.98000000E-001 0.00000000E+000
 6.00000000E-001 1.96667000E-001 0.00000000E+000
 6.00000000E-001 1.95333000E-001 0.00000000E+000
 6.00000000E-001 1.94000000E-001 0.00000000E+000
 6.00000000E-001 1.92667000E-001 0.00000000E+000
 6.00000000E-001 1.91333000E-001 0.00000000E+000
 6.00000000E-001 1.90000000E-001 0.00000000E+000
 5.96490000E-001 1.90000000E-001 0.00000000E+000
 5.92980000E-001 1.90000000E-001 0.00000000E+000
 5.89470000E-001 1.90000000E-001 0.00000000E+000
 5.85960000E-001 1.90000000E-001 0.00000000E+000
 5.82449000E-001 1.90000000E-001 0.00000000E+000
 5.78939000E-001 1.90000000E-001 0.00000000E+000
 5.75429000E-001 1.90000000E-001 0.00000000E+000
 5.71919000E-001 1.90000000E-001 0.00000000E+000
 5.68409000E-001 1.90000000E-001 0.00000000E+000
 5.64899000E-001 1.90000000E-001 0.00000000E+000
 5.61389000E-001 1.90000000E-001 0.00000000E+000
 5.57879000E-001 1.90000000E-001 0.00000000E+000
 5.54369000E-001 1.90000000E-001 0.00000000E+000
 5.50859000E-001 1.90000000E-001 0.00000000E+000
 5.47348000E-001 1.90000000E-001 0.00000000E+000
 5.43838000E-001 1.90000000E-001 0.00000000E+000
 5.40328000E-001 1.90000000E-001 0.00000000E+000
 5.36818000E-001 1.90000000E-001 0.00000000E+000
 5.33308000E-001 1.90000000E-001 0.00000000E+000
 5.29798000E-001 1.90000000E-001 0.00000000E+000
 5.26288000E-001 1.90000000E-001 0.00000000E+000
 5.22778000E-001 1.90000000E-001 0.00000000E+000
 5.19268000E-001 1.90000000E-001 0.00000000E+000
 5.15758000E-001 1.90000000E-001 0.00000000E+000
 5.12247000E-001 1.90000000E-001 0.00000000E+000
 5.08737000E-001 1.90000000E-001 0.00000000E+000
 5.05227000E-001 1.90000000E-001 0.00000000E+000
 5.01717000E-001 1.90000000E-001 0.00000000E+000
 4.98207000E-001 1.90000000E-001 0.00000000E+000
 4.94697000E-001 1.90000000E-001 0.00000000E+000
 4.91187000E-001 1.90000000E-001 0.00000000E+000
 4.87677000E-001 1.90000000E-001 0.00000000E+000
 4.84167000E-001 1.90000000E-001 0.00000000E+000
 4.80657000E-001 1.90000000E-001 0.00000000E+000
 4.77146000E-001 1.90000000E-001 0.00000000E+000
 4.73636000E-001 1.90000000E-001 0.00000000E+000
 4.70126000E-001 1.90000000E-001 0.00000000E+000
 4.66616000E-001 1.90000000E-001 0.00000000E+000
 4.63106000E-001 1.90000000E-001 0.00000000E+000
 4.59596000E-001 1.90000000E-001 0.00000000E+000
 4.56086000E-001 1.90000000E-001 0.00000000E+000
 4.52576000E-001 1.90000000E-001 0.00000000E+000
 4.49066000E-001 1.90000000E-001 0.00000000E+000
 4.45556000E-001 1.90000000E-001 0.00000000E+000
 4.42045000E-001 1.90000000E-001 0.00000000E+000
 4.38535000E-001 1.90000000E-001 0.00000000E+000
 4.35025000E-001 1.90000000E-001 0.00000000E+000
 4.31515000E-001 1.90000000E-001 0.00000000E+000
 4.28005000E-001 1.90000000E-001 0.00000000E+000
 4.24495000E-001 1.90000000E-001 0.00000000E+000
 4.20985000E-001 1.90000000E-001 0.00000000E+000
 4.17475000E-001 1.90000000E-001 0.00000000E+000
 4.13965000E-001 1.90000000E-001 0.00000000E+000
 4.10455000E-001 1.90000000E-001 0.00000000E+000
 4.06944000E-001 1.90000000E-001 0.00000000E+000
 4.03434000E-001 1.90000000E-001 0.00000000E+000
 3.99924000E-001 1.90000000E-001 0.00000000E+000
 3.96414000E-001 1.90000000E-001 0.00000000E+000
 3.92904000E-001 1.90000000E-001 0.00000000E+000
 3.89394000E-001 1.90000000E-001 0.00000000E+000
 3.85884000E-001 1.90000000E-001 0.00000000E+000
 3.82374000E-001 1.90000000E-001 0.00000000E+000
 3.78864000E-001 1.90000000E-001 0.00000000E+000
 3.75353000E-001 1.90000000E-001 0.00000000E+000
 3.71843000E-001 1.90000000E-001 0.00000000E+000
 3.68333000E-001 1.90000000E-001 0.00000000E+000
 3.64823000E-001 1.90000000E-001 0.00000000E+000
 3.61313000E-001 1.90000000E-001 0.00000000E+000
 3.57803000E-001 1.90000000E-001 0.00000000E+000
 3.54293000E-001 1.90000000E-001 0.00000000E+000
 3.50783000E-001 1.90000000E-001 0.00000000E+000
 3.47273000E-001 1.90000000E-001 0.00000000E+000
 3.43763000E-001 1.90000000E-001 0.00000000E+000
 3.40252000E-001 1.90000000E-001 0.00000000E+000
 3.36742000E-001 1.90000000E-001 0.00000000E+000
 3.33232000E-001 1.90000000E-001 0.00000000E+000
 3.29722000E-001 1.90000000E-001 0.00000000E+000
 3.26212000E-001 1.90000000E-001 0.00000000E+000
 3.22702000E-001 1.90000000E-001 0.00000000E+000
 3.19192000E-001 1.90000000E-001 0.00000000E+000
 3.15682000E-001 1.90000000E-001 0.00000000E+000
 3.12172000E-001 1.90000000E-001 0.00000000E+000
 3.08661000E-001 1.90000000E-001 0.00000000E+000
 3.05151000E-001 1.90000000E-001 0.00000000E+000
 3.01641000E-001 1.90000000E-001 0.00000000E+000
 2.98131000E-001 1.90000000E-001 0.00000000E+000
 2.94621000E-001 1.90000000E-001 0.00000000E+000
 2.91111000E-001 1.90000000E-001 0.00000000E+000
 2.87601000E-001 1.90000000E-001 0.00000000E+000
 2.84091000E-001 1.90000000E-001 0.00000000E+000
 2.80581000E-001 1.90000000E-001 0.00000000E+000
 2.77071000E-001 1.90000000E-001 0.00000000E+000
 2.73560000E-001 1.90000000E-001 0.00000000E+000
 2.70050000E-001 1.90000000E-001 0.00000000E+000
 2.66540000E-001 1.90000000E-001 0.00000000E+000
 2.63030000E-001 1.90000000E-001 0.00000000E+000
 2.59520000E-001 1.90000000E-001 0.00000000E+000
 2.56010000E-001 1.90000000E-001 0.00000000E+000
 2.52500000E-001 1.90000000E-001 0.00000000E+000
 2.48990000E-001 1.90000000E-001 0.00000000E+000
 2.48990000E-001 1.91333000E-001 0.00000000E+000
 2.48990000E-001 1.92667000E-001 0.00000000E+000
 2.48990000E-001 1.94000000E-001 0.00000000E+000
 2.48990000E-001 1.95333000E-001 0.00000000E+000
 2.48990000E-001 1.96667000E-001 0.00000000E+000
 2.48990000E-001 1.98000000E-001 0.00000000E+000
 2.48990000E-001 1.99333000E-001 0.00000000E+000
 2.48990000E-001 2.00667000E-001 0.00000000E+000
 2.48990000E-001 2.02000000E-001 0.00000000E+000
 2.48990000E-001 2.03333000E-001 0.00000000E+000
 2.48990000E-001 2.04667000E-001 0.00000000E+000
 2.48990000E-001 2.06000000E-001 0.00000000E+000
 2.48990000E-001 2.07333000E-001 0.00000000E+000
 2.48990000E-001 2.08667000E-001 0.00000000E+000
 2.48990000E-001 2.10000000E-001 0.00000000E+000
 2.52500000E-001 2.10000000E-001 0.00000000E+000
 2.56010000E-001 2.10000000E-001 0.00000000E+000
 2.59520000E-001 2.10000000E-001 0.00000000E+000
 2.63030000E-001 2.10000000E-001 0.00000000E+000
 2.66540000E-001 2.10000000E-001 0.00000000E+000
 2.70050000E-001 2.10000000E-001 0.00000000E+000
 2.73560000E-001 2.10000000E-001 0.00000000E+000
 2.77071000E-001 2.10000000E-001 0.00000000E+000
 2.80581000E-001 2.10000000E-001 0.00000000E+000
 2.84091000E-001 2.10000000E-001 0.00000000E+000
 2.87601000E-001 2.10000000E-001 0.00000000E+000
 2.91111000E-001 2.10000000E-001 0.00000000E+000
 2.94621000E-001 2.10000000E-001 0.00000000E+000
 2.98131000E-001 2.10000000E-001 0.00000000E+000
 3.01641000E-001 2.10000000E-001 0.00000000E+000
 3.05151000E-001 2.10000000E-001 0.00000000E+000
 3.08661000E-001 2.10000000E-001 0.00000000E+000
 3.12172000E-001 2.10000000E-001 0.00000000E+000
 3.15682000E-001 2.10000000E-001 0.00000000E+000
 3.19192000E-001 2.10000000E-001 0.00000000E+000
 3.22702000E-001 2.10000000E-001 0.00000000E+000
 3.26212000E-001 2.10000000E-001 0.00000000E+000
 3.29722000E-001 2.10000000E-001 0.00000000E+000
 3.33232000E-001 2.10000000E-001 0.00000000E+000
 3.36742000E-001 2.10000000E-001 0.00000000E+000
 3.40252000E-001 2.10000000E-001 0.00000000E+000
 3.43763000E-001 2.10000000E-001 0.00000000E+000
 3.47273000E-001 2.10000000E-001 0.00000000E+000
 3.50783000E-001 2.10000000E-001 0.00000000E+000
 3.54293000E-001 2.10000000E-001 0.00000000E+000
 3.57803000E-001 2.10000000E-001 0.00000000E+000
 3.61313000E-001 2.10000000E-001 0.00000000E+000
 3.64823000E-001 2.10000000E-001 0.00000000E+000
 3.68333000E-001 2.10000000E-001 0.00000000E+000
 3.71843000E-001 2.10000000E-001 0.00000000E+000
 3.75353000E-001 2.10000000E-001 0.00000000E+000
 3.78864000E-001 2.10000000E-001 0.00000000E+000
 3.82374000E-001 2.10000000E-001 0.00000000E+000
 3.85884000E-001 2.10000000E-001 0.00000000E+000
 3.89394000E-001 2.10000000E-001 0.00000000E+000
 3.92904000E-001 2.10000000E-001 0.00000000E+000
 3.96414000E-001 2.10000000E-001 0.00000000E+000
 3.99924000E-001 2.10000000E-001 0.00000000E+000
 4.03434000E-001 2.10000000E-001 0.00000000E+000
 4.06944000E-001 2.10000000E-001 0.00000000E+000
 4.10455000E-001 2.10000000E-001 0.00000000E+000
 4.13965000E-001 2.10000000E-001 0.00000000E+000
 4.17475000E-001 2.10000000E-001 0.00000000E+000
 4.20985000E-001 2.10000000E-001 0.00000000E+000
 4.24495000E-001 2.10000000E-001 0.00000000E+000
 4.28005000E-001 2.10000000E-001 0.00000000E+000
 4.31515000E-001 2.10000000E-001 0.00000000E+000
 4.35025000E-001 2.10000000E-001 0.00000000E+000
 4.38535000E-001 2.10000000E-001 0.00000000E+000
 4.42045000E-001 2.10000000E-001 0.00000000E+000
 4.45556000E-001 2.10000000E-001 0.00000000E+000
 4.49066000E-001 2.10000000E-001 0.00000000E+000
 4.52576000E-001 2.10000000E-001 0.00000000E+000
 4.56086000E-001 2.10000000E-001 0.00000000E+000
 4.59596000E-001 2.10000000E-001 0.00000000E+000
 4.63106000E-001 2.10000000E-001 0.00000000E+000
 4.66616000E-001 2.10000000E-001 0.00000000E+000
 4.70126000E-001 2.10000000E-001 0.00000000E+000
 4.73636000E-001 2.10000000E-001 0.00000000E+000
 4.77146000E-001 2.10000000E-001 0.00000000E+000
 4.80657000E-001 2.10000000E-001 0.00000000E+000
 4.84167000E-001 2.10000000E-001 0.00000000E+000
 4.87677000E-001 2.10000000E-001 0.00000000E+000
 4.91187000E-001 2.10000000E-001 0.00000000E+000
 4.94697000E-001 2.10000000E-001 0.00000000E+000
[...]
POINT_DATA 3232
VECTORS DISP double
 -1.6935300E-003 -3.2683200E-002  9.4504700E-006
 -2.0247700E-003 -3.2641600E-002  9.3656300E-006
 -2.3570900E-003 -3.2599300E-002  9.1099600E-006
 -2.6887400E-003 -3.2557300E-002  8.7036500E-006
 -3.0206500E-003 -3.2515200E-002  8.1739900E-006
 -3.3523700E-003 -3.2473200E-002  7.5436700E-006
 -3.6841500E-003 -3.2431100E-002  6.8418000E-006
 -4.0158300E-003 -3.2389200E-002  6.0981400E-006
 -4.3475600E-003 -3.2347200E-002  5.3444500E-006
 -4.6792200E-003 -3.2305200E-002  4.6124900E-006
 -5.0108700E-003 -3.2263300E-002  3.9335800E-006
 -5.3425200E-003 -3.2221300E-002  3.3365500E-006
 -5.6741300E-003 -3.2179400E-002  2.8472100E-006
 -6.0057400E-003 -3.2137600E-002  2.4881600E-006
 -6.3371800E-003 -3.2095700E-002  2.2728400E-006
 -6.6690300E-003 -3.2054200E-002  2.2015200E-006
 -6.5584900E-003 -3.1180100E-002  2.1275100E-006
 -6.4482900E-003 -3.0307400E-002  1.9249900E-006
 -6.3375100E-003 -2.9433600E-002  1.5967300E-006
 -6.2267000E-003 -2.8560600E-002  1.1328200E-006
 -6.1154400E-003 -2.7687200E-002  5.2789000E-007
 -6.0039800E-003 -2.6814500E-002 -2.2962900E-007
 -5.8920400E-003 -2.5941900E-002 -1.1485800E-006
 -5.7797400E-003 -2.5070100E-002 -2.2402000E-006
 -5.6669000E-003 -2.4198800E-002 -3.5133900E-006
 -5.5535700E-003 -2.3328800E-002 -4.9779300E-006
 -5.4396400E-003 -2.2460000E-002 -6.6409200E-006
 -5.3251200E-003 -2.1592900E-002 -8.5097900E-006
 -5.2099400E-003 -2.0727800E-002 -1.0588900E-005
 -5.0941100E-003 -1.9865200E-002 -1.2882300E-005
 -4.9775900E-003 -1.9005500E-002 -1.5391100E-005
 -4.8604100E-003 -1.8149300E-002 -1.8115100E-005
 -4.7425200E-003 -1.7296900E-002 -2.1051900E-005
 -4.6240200E-003 -1.6449300E-002 -2.4196700E-005
 -4.5048600E-003 -1.5606800E-002 -2.7543000E-005
 -4.3851600E-003 -1.4770400E-002 -3.1081200E-005
 -4.2648700E-003 -1.3940400E-002 -3.4800900E-005
 -4.1441900E-003 -1.3118000E-002 -3.8687800E-005
 -4.0230600E-003 -1.2303700E-002 -4.2727100E-005
 -3.9016900E-003 -1.1498400E-002 -4.6900900E-005
 -3.7800800E-003 -1.0703000E-002 -5.1189800E-005
 -3.6584100E-003 -9.9182700E-003 -5.5572900E-005
 -3.5367500E-003 -9.1451800E-003 -6.0027000E-005
 -3.4152500E-003 -8.3845400E-003 -6.4528300E-005
 -3.2940300E-003 -7.6373800E-003 -6.9050800E-005
 -3.1732200E-003 -6.9044200E-003 -7.3568800E-005
 -3.0529800E-003 -6.1867900E-003 -7.8054200E-005
 -2.9334200E-003 -5.4851600E-003 -8.2479800E-005
 -2.8147200E-003 -4.8006100E-003 -8.6817100E-005
 -2.6969700E-003 -4.1338400E-003 -9.1038200E-005
 -2.5803700E-003 -3.4858000E-003 -9.5115000E-005
 -2.4650000E-003 -2.8572700E-003 -9.9020100E-005
 -2.3510300E-003 -2.2489800E-003 -1.0272700E-004
 -2.2385600E-003 -1.6617700E-003 -1.0621000E-004
 -2.1277200E-003 -1.0961900E-003 -1.0944400E-004
 -2.0186300E-003 -5.5308400E-004 -1.1240700E-004
 -1.9113600E-003 -3.2823300E-005 -1.1507800E-004
 -1.8060400E-003  4.6383200E-004 -1.1743700E-004
 -1.7027200E-003  9.3659000E-004 -1.1946800E-004
 -1.6015100E-003  1.3848800E-003 -1.2115400E-004
 -1.5024400E-003  1.8084300E-003 -1.2248400E-004
 -1.4055800E-003  2.2069200E-003 -1.2344700E-004
 -1.3109600E-003  2.5800900E-003 -1.2403500E-004
 -1.2186400E-003  2.9278800E-003 -1.2424300E-004
 -1.1286200E-003  3.2500300E-003 -1.2406800E-004
 -1.0409200E-003  3.5467200E-003 -1.2350800E-004
 -9.5557100E-004  3.8177800E-003 -1.2256600E-004
 -8.7254600E-004  4.0635200E-003 -1.2124500E-004
 -7.9189400E-004  4.2839600E-003 -1.1955100E-004
 -7.1354700E-004  4.4794500E-003 -1.1749300E-004
 -6.3757000E-004  4.6502500E-003 -1.1507800E-004
 -5.6388200E-004  4.7966900E-003 -1.1231900E-004
 -4.9254600E-004  4.9193500E-003 -1.0922900E-004
 -4.2348700E-004  5.0184600E-003 -1.0582000E-004
 -3.5675800E-004  5.0949000E-003 -1.0211000E-004
 -2.9230700E-004  5.1488800E-003 -9.8114100E-005
 -2.3017000E-004  5.1814900E-003 -9.3849700E-005
 -1.7032800E-004  5.1929700E-003 -8.9334100E-005
 -1.1280100E-004  5.1845000E-003 -8.4586800E-005
 -5.7599800E-005  5.1565000E-003 -7.9626200E-005
 -4.7445800E-006  5.1100900E-003 -7.4472100E-005
  4.5741600E-005  5.0459600E-003 -6.9144200E-005
  9.3815600E-005  4.9651100E-003 -6.3662200E-005
  1.3946700E-004  4.8684800E-003 -5.8046500E-005
  1.8260100E-004  4.7569900E-003 -5.2316400E-005
  2.2325000E-004  4.6317300E-003 -4.6493100E-005
  2.6124000E-004  4.4936600E-003 -4.0595300E-005
  2.9667400E-004  4.3438600E-003 -3.4644400E-005
  3.2927900E-004  4.1835000E-003 -2.8659000E-005
  3.5924600E-004  4.0134400E-003 -2.2660400E-005
  3.8620000E-004  3.8352300E-003 -1.6667700E-005
  4.1041800E-004  3.6493600E-003 -1.0701900E-005
  4.3143900E-004  3.4578700E-003 -4.7835800E-006
  4.4961400E-004  3.2607600E-003  1.0658700E-006
  4.6441900E-004  3.0606200E-003  6.8238000E-006
  4.7626000E-004  2.8569800E-003  1.2467200E-005
  4.8458000E-004  2.6528800E-003  1.7970100E-005
  4.8981800E-004  2.4474500E-003  2.3305600E-005
  4.9141200E-004  2.2440900E-003  2.8442800E-005
  4.8982200E-004  2.0416400E-003  3.3347000E-005
  4.8449500E-004  1.8437700E-003  3.7979800E-005
  4.7590600E-004  1.6490200E-003  4.2293700E-005
  4.6353800E-004  1.4613800E-003  4.6237400E-005
  4.4784000E-004  1.2789300E-003  4.9743100E-005
  4.2841400E-004  1.1063000E-003  5.2738800E-005
  4.0555900E-004  9.4062600E-004  5.5125000E-005
  3.7919900E-004  7.8775000E-004  5.6796500E-005
  3.4917900E-004  6.4312400E-004  5.7603700E-005
  3.1621300E-004  5.1474200E-004  5.7388700E-005
  2.7899900E-004  3.9517400E-004  5.5921400E-005
  2.4004700E-004  2.9609300E-004  5.2959800E-005
  1.9540900E-004  2.0517000E-004  4.8132200E-005
  1.5180500E-004  1.4088200E-004  4.1071500E-005
  9.9640000E-005  8.0792600E-005  3.1144400E-005
  5.7726700E-005  5.7823200E-005  1.7925200E-005
  0.0000000E+000  0.0000000E+000  0.0000000E+000
  0.0000000E+000  0.0000000E+000  0.0000000E+000
  0.0000000E+000  0.0000000E+000  0.0000000E+000
  0.0000000E+000  0.0000000E+000  0.0000000E+000
  0.0000000E+000  0.0000000E+000  0.0000000E+000
  0.0000000E+000  0.0000000E+000  0.0000000E+000
  0.0000000E+000  0.0000000E+000  0.0000000E+000
  0.0000000E+000  0.0000000E+000  0.0000000E+000
  0.0000000E+000  0.0000000E+000  0.0000000E+000
  0.0000000E+000  0.0000000E+000  0.0000000E+000
  0.0000000E+000  0.0000000E+000  0.0000000E+000
  0.0000000E+000  0.0000000E+000  0.0000000E+000
  0.0000000E+000  0.0000000E+000  0.0000000E+000
  0.0000000E+000  0.0000000E+000  0.0000000E+000
  0.0000000E+000  0.0000000E+000  0.0000000E+000
  0.0000000E+000  0.0000000E+000  0.0000000E+000
 -6.2102600E-005  6.3078300E-005 -1.4519300E-005
 -1.0456500E-004  8.4741000E-005 -2.4471600E-005
 -1.6015200E-004  1.4459300E-004 -3.1301600E-005
 -2.0659100E-004  2.0655700E-004 -3.5388600E-005
 -2.5555700E-004  2.9610400E-004 -3.7371600E-005
 -2.9912200E-004  3.9227300E-004 -3.7610700E-005
 -3.4208000E-004  5.1008300E-004 -3.6484100E-005
 -3.8143400E-004  6.3526300E-004 -3.4237700E-005
 -4.1884500E-004  7.7803800E-004 -3.1106400E-005
 -4.5339200E-004  9.2773000E-004 -2.7255400E-005
 -4.8531500E-004  1.0916300E-003 -2.2836700E-005
 -5.1462400E-004  1.2614200E-003 -1.7962400E-005
 -5.4091800E-004  1.4422900E-003 -1.2733600E-005
 -5.6460800E-004  1.6277200E-003 -7.2270700E-006
 -5.8503600E-004  1.8212000E-003 -1.5122000E-006
 -6.0274700E-004  2.0176800E-003  4.3582000E-006
 -6.1702100E-004  2.2192800E-003  1.0334700E-005
 -6.2840500E-004  2.4221500E-003  1.6380600E-005
 -6.3622900E-004  2.6272900E-003  2.2459200E-005
 -6.4096500E-004  2.8317500E-003  2.8544500E-005
 -6.4205900E-004  3.0357900E-003  3.4608300E-005
 -6.3987100E-004  3.2370100E-003  4.0631400E-005
 -6.3399400E-004  3.4352600E-003  4.6591900E-005
 -6.2467800E-004  3.6283900E-003  5.2474200E-005
 -6.1165500E-004  3.8161400E-003  5.8261300E-005
 -5.9509600E-004  3.9963500E-003  6.3939700E-005
 -5.7484400E-004  4.1688800E-003  6.9495800E-005
 -5.5103700E-004  4.3314600E-003  7.4917200E-005
 -5.2359100E-004  4.4840600E-003  8.0193200E-005
 -4.9266000E-004  4.6243800E-003  8.5311500E-005
 -4.5819300E-004  4.7524400E-003  9.0263400E-005
 -4.2040400E-004  4.8660700E-003  9.5037200E-005
 -3.7925300E-004  4.9651100E-003  9.9624900E-005
 -3.3502600E-004  5.0477600E-003  1.0401600E-004
 -2.8770300E-004  5.1135400E-003  1.0820200E-004
 -2.3762700E-004  5.1611300E-003  1.1217500E-004
 -1.8482600E-004  5.1896600E-003  1.1592400E-004
 -1.2966700E-004  5.1983700E-003  1.1944300E-004
 -7.2263600E-005  5.1860400E-003  1.2272100E-004
 -1.2968400E-005  5.1523400E-003  1.2575300E-004
  4.7990500E-005  5.0959300E-003  1.2852800E-004
  1.1029800E-004  5.0166600E-003  1.3104200E-004
  1.7361100E-004  4.9133700E-003  1.3328300E-004
  2.3764100E-004  4.7858300E-003  1.3524900E-004
  3.0196600E-004  4.6333200E-003  1.3693000E-004
  3.6629200E-004  4.4553500E-003  1.3832100E-004
  4.3017500E-004  4.2517600E-003  1.3941800E-004
  4.9327100E-004  4.0217900E-003  1.4021400E-004
  5.5517200E-004  3.7658000E-003  1.4070700E-004
  6.1545600E-004  3.4828700E-003  1.4089400E-004
  6.7379000E-004  3.1737400E-003  1.4077300E-004
  7.2967700E-004  2.8375500E-003  1.4034200E-004
  7.8285700E-004  2.4751300E-003  1.3960500E-004
  8.3280800E-004  2.0860200E-003  1.3856200E-004
  8.7930600E-004  1.6708500E-003  1.3721800E-004
  9.2187600E-004  1.2297400E-003  1.3557800E-004
  9.6028200E-004  7.6301200E-004  1.3364800E-004
  9.9416000E-004  2.7140700E-004  1.3143900E-004
  1.0232400E-003 -2.4502900E-004  1.2895900E-004
  1.0473000E-003 -7.8509000E-004  1.2622200E-004
  1.0660400E-003 -1.3488100E-003  1.2324200E-004
  1.0793700E-003 -1.9347800E-003  1.2003300E-004
  1.0870100E-003 -2.5428800E-003  1.1661400E-004
  1.0889600E-003 -3.1717500E-003  1.1300200E-004
  1.0850100E-003 -3.8209400E-003  1.0921600E-004
  1.0752100E-003 -4.4893200E-003  1.0527800E-004
  1.0594600E-003 -5.1760400E-003  1.0121000E-004
  1.0378200E-003 -5.8802300E-003  9.7031600E-005
  1.0103100E-003 -6.6007500E-003  9.2767500E-005
  9.7700000E-004 -7.3369000E-003  8.8439100E-005
  9.3804200E-004 -8.0873800E-003  8.4070500E-005
  8.9350100E-004 -8.8515500E-003  7.9683300E-005
  8.4361500E-004 -9.6281500E-003  7.5300600E-005
  7.8848800E-004 -1.0416500E-002  7.0943900E-005
  7.2839300E-004 -1.1215400E-002  6.6634400E-005
  6.6349000E-004 -1.2024200E-002  6.2392400E-005
  5.9406300E-004 -1.2841900E-002  5.8236700E-005
  5.2032600E-004 -1.3667500E-002  5.4185800E-005
  4.4255400E-004 -1.4500500E-002  5.0256000E-005
  3.6100200E-004 -1.5339900E-002  4.6462900E-005
  2.7593600E-004 -1.6185000E-002  4.2820300E-005
  1.8763200E-004 -1.7035200E-002  3.9340400E-005
  9.6344100E-005 -1.7889800E-002  3.6033900E-005
  2.3522300E-006 -1.8748100E-002  3.2909800E-005
 -9.4103300E-005 -1.9609700E-002  2.9975500E-005
 -1.9275200E-004 -2.0474000E-002  2.7236600E-005
 -2.9337500E-004 -2.1340700E-002  2.4697200E-005
 -3.9571500E-004 -2.2209100E-002  2.2359800E-005
 -4.9958300E-004 -2.3079100E-002  2.0225400E-005
 -6.0474200E-004 -2.3950200E-002  1.8293700E-005
 -7.1103300E-004 -2.4822300E-002  1.6563100E-005
 -8.1824700E-004 -2.5694900E-002  1.5030800E-005
 -9.2624900E-004 -2.6568200E-002  1.3693800E-005
 -1.0348800E-003 -2.7441500E-002  1.2547700E-005
 -1.1440000E-003 -2.8315200E-002  1.1588800E-005
 -1.2535400E-003 -2.9188700E-002  1.0812100E-005
 -1.3632500E-003 -3.0062700E-002  1.0214300E-005
 -1.4733000E-003 -3.0935900E-002  9.7904900E-006
 -1.5830500E-003 -3.1810100E-002  9.5354100E-006
 -1.9151900E-003 -3.1767700E-002  9.4478900E-006
 -1.8048900E-003 -3.0894100E-002  9.6979400E-006
 -1.6950700E-003 -3.0020400E-002  1.0114900E-005
 -1.5852000E-003 -2.9146800E-002  1.0700700E-005
 -1.4756400E-003 -2.8272900E-002  1.1461300E-005
 -1.3663900E-003 -2.7399300E-002  1.2399600E-005
 -1.2575800E-003 -2.6525700E-002  1.3520500E-005
 -1.1493500E-003 -2.5652600E-002  1.4827700E-005
 -1.0417800E-003 -2.4779700E-002  1.6325100E-005
 -9.3508200E-004 -2.3907700E-002  1.8016000E-005
 -8.2935000E-004 -2.3036400E-002  1.9902900E-005
 -7.2482600E-004 -2.2166400E-002  2.1987100E-005
 -6.2163600E-004 -2.1297800E-002  2.4269000E-005
 -5.2003900E-004 -2.0431200E-002  2.6747500E-005
 -4.2019800E-004 -1.9566800E-002  2.9420100E-005
 -3.2238200E-004 -1.8705200E-002  3.2282800E-005
 -2.2678800E-004 -1.7846900E-002  3.5330000E-005
 -1.3368800E-004 -1.6992400E-002  3.8554500E-005
 -4.3304300E-005 -1.6142200E-002  4.1947500E-005
  4.4088500E-005 -1.5297200E-002  4.5498500E-005
  1.2825800E-004 -1.4458000E-002  4.9195600E-005
  2.0892900E-004 -1.3625200E-002  5.3025300E-005
  2.8587400E-004 -1.2799700E-002  5.6972600E-005
  3.5882100E-004 -1.1982400E-002  6.1021300E-005
  4.2756300E-004 -1.1173900E-002  6.5153700E-005
  4.9184200E-004 -1.0375300E-002  6.9351300E-005
  5.5146800E-004 -9.5875000E-003  7.3594300E-005
  6.0622900E-004 -8.8112900E-003  7.7862400E-005
  6.5594700E-004 -8.0477800E-003  8.2134200E-005
  7.0047700E-004 -7.2977700E-003  8.6387900E-005
  7.3965100E-004 -6.5623900E-003  9.0601800E-005
  7.7341300E-004 -5.8424800E-003  9.4753400E-005
  8.0160800E-004 -5.1391000E-003  9.8820800E-005
  8.2427100E-004 -4.4531500E-003  1.0278200E-004
  8.4128400E-004 -3.7855700E-003  1.0661500E-004
  8.5275300E-004 -3.1373600E-003  1.1030000E-004
  8.5863300E-004 -2.5092300E-003  1.1381700E-004
  8.5906900E-004 -1.9022800E-003  1.1714700E-004
  8.5413000E-004 -1.3170100E-003  1.2027100E-004
  8.4396000E-004 -7.5453300E-004  1.2317400E-004
  8.2877000E-004 -2.1519900E-004  1.2584000E-004
  8.0868300E-004  3.0001700E-004  1.2825600E-004
  7.8405000E-004  7.9080100E-004  1.3041000E-004
  7.5498200E-004  1.2564400E-003  1.3229200E-004
  7.2192700E-004  1.6965800E-003  1.3389400E-004
  6.8502300E-004  2.1108600E-003  1.3520800E-004
  6.4474700E-004  2.4988600E-003  1.3623000E-004
  6.0131200E-004  2.8605900E-003  1.3695500E-004
  5.5516100E-004  3.1955800E-003  1.3738100E-004
  5.0661300E-004  3.5041600E-003  1.3750800E-004
  4.5602500E-004  3.7859300E-003  1.3733600E-004
  4.0383600E-004  4.0413900E-003  1.3686700E-004
  3.5030100E-004  4.2703400E-003  1.3610300E-004
  2.9594400E-004  4.4733500E-003  1.3504800E-004
  2.4095000E-004  4.6505100E-003  1.3370600E-004
  1.8586100E-004  4.8023500E-003  1.3208300E-004
  1.3084100E-004  4.9293000E-003  1.3018300E-004
  7.6383000E-005  5.0318300E-003  1.2801400E-004
  2.2672700E-005  5.1106800E-003  1.2558200E-004
 -2.9899400E-005  5.1663100E-003  1.2289400E-004
 -8.1093900E-005  5.1996600E-003  1.1995700E-004
 -1.3065300E-004  5.2112800E-003  1.1677900E-004
 -1.7828600E-004  5.2021600E-003  1.1336800E-004
 -2.2385300E-004  5.1730800E-003  1.0973100E-004
 -2.6704600E-004  5.1249400E-003  1.0587600E-004
 -3.0780400E-004  5.0588100E-003  1.0181200E-004
 -3.4585500E-004  4.9754300E-003  9.7548100E-005
 -3.8116100E-004  4.8762000E-003  9.3091700E-005
 -4.1353400E-004  4.7616800E-003  8.8452300E-005
 -4.4291600E-004  4.6335400E-003  8.3638900E-005
 -4.6923900E-004  4.4922100E-003  7.8661300E-005
 -4.9239600E-004  4.3395600E-003  7.3529300E-005
 -5.1244200E-004  4.1759300E-003  6.8253500E-005
 -5.2922600E-004  4.0033000E-003  6.2845000E-005
 -5.4290100E-004  3.8220000E-003  5.7315600E-005
 -5.5330100E-004  3.6340900E-003  5.1678100E-005
 -5.6063100E-004  3.4398300E-003  4.5946300E-005
 -5.6475000E-004  3.2413900E-003  4.0135800E-005
 -5.6585800E-004  3.0389200E-003  3.4263200E-005
 -5.6388800E-004  2.8347700E-003  2.8347700E-005
 -5.5897800E-004  2.6288000E-003  2.2410600E-005
 -5.5117500E-004  2.4237700E-003  1.6476800E-005
 -5.4050900E-004  2.2190100E-003  1.0574200E-005
 -5.2717300E-004  2.0178900E-003  4.7361100E-006
 -5.1103900E-004  1.8189800E-003 -9.9900300E-007
 -4.9249800E-004  1.6265100E-003 -6.5854800E-006
 -4.7117700E-004  1.4379900E-003 -1.1968900E-005
 -4.4778500E-004  1.2588200E-003 -1.7084300E-005
 -4.2151100E-004  1.0851200E-003 -2.1853300E-005
 -3.9365100E-004  9.2381900E-004 -2.6181300E-005
 -3.6255100E-004  7.6918700E-004 -2.9953000E-005
 -3.3067000E-004  6.3022900E-004 -3.3027700E-005
 -2.9467700E-004  4.9869200E-004 -3.5233400E-005
 -2.5937400E-004  3.8649100E-004 -3.6356300E-005
 -2.1806500E-004  2.8179800E-004 -3.6136400E-005
 -1.8033300E-004  2.0076100E-004 -3.4238400E-005
 -1.3275000E-004  1.2667500E-004 -3.0275500E-005
 -9.4984600E-005  8.0660400E-005 -2.3708100E-005
 -4.0474000E-005  4.0934700E-005 -1.4100500E-005
 -2.2467100E-003 -3.1725700E-002  9.1899600E-006
 -2.1368600E-003 -3.0852000E-002  9.4281800E-006
 -2.0266700E-003 -2.9978300E-002  9.8228100E-006
 -1.9169100E-003 -2.9104600E-002  1.0374800E-005
 -1.8071600E-003 -2.8230800E-002  1.1088500E-005
 -1.6978100E-003 -2.7357100E-002  1.1967700E-005
 -1.5887900E-003 -2.6483600E-002  1.3016100E-005
 -1.4802700E-003 -2.5610300E-002  1.4237700E-005
 -1.3723600E-003 -2.4737500E-002  1.5635600E-005
 -1.2651700E-003 -2.3865300E-002  1.7212800E-005
 -1.1588900E-003 -2.2994000E-002  1.8971300E-005
 -1.0536300E-003 -2.2123900E-002  2.0912300E-005
 -9.4960400E-004 -2.1255400E-002  2.3035700E-005
 -8.4695900E-004 -2.0388700E-002  2.5340500E-005
 -7.4593400E-004 -1.9524400E-002  2.7824100E-005
 -6.4669600E-004 -1.8662800E-002  3.0482600E-005
 -5.4950000E-004 -1.7804600E-002  3.3310700E-005
 -4.5453900E-004 -1.6950100E-002  3.6301700E-005
 -3.6207500E-004 -1.6100200E-002  3.9447100E-005
 -2.7231500E-004 -1.5255300E-002  4.2737400E-005
 -1.8553000E-004 -1.4416300E-002  4.6161400E-005
 -1.0192700E-004 -1.3583800E-002  4.9706400E-005
 -2.1781600E-005 -1.2758600E-002  5.3358800E-005
  5.4712800E-005 -1.1941600E-002  5.7103400E-005
  1.2728400E-004 -1.1133600E-002  6.0924000E-005
  1.9575600E-004 -1.0335500E-002  6.4803500E-005
  2.5987800E-004 -9.5481400E-003  6.8723700E-005
  3.1949500E-004 -8.7725500E-003  7.2665900E-005
  3.7440400E-004 -8.0096200E-003  7.6610400E-005
  4.2445300E-004 -7.2603300E-003  8.0537500E-005
  4.6952500E-004 -6.5256600E-003  8.4426900E-005
  5.0945900E-004 -5.8065400E-003  8.8258400E-005
  5.4424600E-004 -5.1039900E-003  9.2011700E-005
  5.7372100E-004 -4.4188900E-003  9.5666800E-005
  5.9797700E-004 -3.7522600E-003  9.9204200E-005
  6.1687900E-004 -3.1049200E-003  1.0260500E-004
  6.3058900E-004 -2.4778500E-003  1.0585100E-004
  6.3905100E-004 -1.8718000E-003  1.0892500E-004
  6.4244400E-004 -1.2876500E-003  1.1181000E-004
  6.4084500E-004 -7.2609000E-004  1.1449300E-004
  6.3440200E-004 -1.8788000E-004  1.1695800E-004
  6.2335900E-004  3.2638000E-004  1.1919500E-004
  6.0780900E-004  8.1608700E-004  1.2119200E-004
  5.8815000E-004  1.2807300E-003  1.2294000E-004
  5.6444400E-004  1.7198800E-003  1.2443200E-004
  5.3718500E-004  2.1331300E-003  1.2566000E-004
  5.0645900E-004  2.5202500E-003  1.2662100E-004
  4.7276900E-004  2.8809400E-003  1.2731100E-004
  4.3629300E-004  3.2151500E-003  1.2772800E-004
  3.9745900E-004  3.5227400E-003  1.2787100E-004
  3.5658300E-004  3.8038000E-003  1.2774100E-004
  3.1396800E-004  4.0583500E-003  1.2733900E-004
  2.7006700E-004  4.2866400E-003  1.2666700E-004
  2.2506400E-004  4.4888600E-003  1.2572900E-004
  1.7949600E-004  4.6653900E-003  1.2452800E-004
  1.3347600E-004  4.8165600E-003  1.2306800E-004
  8.7542000E-005  4.9428900E-003  1.2135600E-004
  4.1808600E-005  5.0448700E-003  1.1939500E-004
 -3.2739200E-006  5.1231400E-003  1.1719300E-004
 -4.7527500E-005  5.1783000E-003  1.1475400E-004
 -9.0650500E-005  5.2111300E-003  1.1208600E-004
 -1.3237300E-004  5.2223000E-003  1.0919400E-004
 -1.7255500E-004  5.2127400E-003  1.0608600E-004
 -2.1085500E-004  5.1831900E-003  1.0276800E-004
 -2.4726200E-004  5.1347000E-003  9.9248400E-005
 -2.8141500E-004  5.0680500E-003  9.5533100E-005
 -3.1337000E-004  4.9844200E-003  9.1629800E-005
 -3.4281700E-004  4.8845800E-003  8.7546300E-005
 -3.6981000E-004  4.7698900E-003  8.3290300E-005
 -3.9414600E-004  4.6410600E-003  7.8870000E-005
 -4.1583300E-004  4.4996000E-003  7.4293700E-005
 -4.3479700E-004  4.3461700E-003  6.9570500E-005
 -4.5099400E-004  4.1824300E-003  6.4709500E-005
 -4.6445500E-004  4.0089500E-003  5.9720900E-005
 -4.7511900E-004  3.8275600E-003  5.4615200E-005
 -4.8306100E-004  3.6386900E-003  4.9404100E-005
 -4.8826700E-004  3.4443600E-003  4.4100300E-005
 -4.9077700E-004  3.2448200E-003  3.8717600E-005