# vtk DataFile Version 3.0
MMH: CalculiX output 'object.frd' file to 'vtk' format
ASCII
DATASET UNSTRUCTURED_GRID
POINTS 3232 double
 6.00000000E-001 2.10000000E-001 0.00000000E+000
 6.00000000E-001 2.08667000E-001 0.00000000E+000
 6.00000000E-001 2.07333000E-001 0.00000000E+000
 6.00000000E-001 2.06000000E-001 0.00000000E+000
 6.00000000E-001 2.04667000E-001 0.00000000E+000
 6.00000000E-001 2.03333000E-001 0.00000000E+000
 6.00000000E-001 2.02000000E-001 0.00000000E+000
 6.00000000E-001 2.00667000E-001 0.00000000E+000
 6.00000000E-001 1.99333000E-001 0.00000000E+000
 6.00000000E-001 1.98000000E-001 0.00000000E+000
 6.00000000E-001 1.96667000E-001 0.00000000E+000
 6.00000000E-001 1.95333000E-001 0.00000000E+000
 6.00000000E-001 1.94000000E-001 0.00000000E+000
 6.00000000E-001 1.92667000E-001 0.00000000E+000
 6.00000000E-001 1.91333000E-001 0.00000000E+000
 6.00000000E-001 1.90000000E-001 0.00000000E+000
 5.96490000E-001 1.90000000E-001 0.00000000E+000
 5.92980000E-001 1.90000000E-001 0.00000000E+000
 5.89470000E-001 1.90000000E-001 0.00000000E+000
 5.85960000E-001 1.90000000E-001 0.00000000E+000
 5.82449000E-001 1.90000000E-001 0.00000000E+000
 5.78939000E-001 1.90000000E-001 0.00000000E+000
 5.75429000E-001 1.90000000E-001 0.00000000E+000
 5.71919000E-001 1.90000000E-001 0.00000000E+000
 5.68409000E-001 1.90000000E-001 0.00000000E+000
 5.64899000E-001 1.90000000E-001 0.00000000E+000
 5.61389000E-001 1.90000000E-001 0.00000000E+000
 5.57879000E-001 1.90000000E-001 0.00000000E+000
 5.54369000E-001 1.90000000E-001 0.00000000E+000
 5.50859000E-001 1.90000000E-001 0.00000000E+000
 5.47348000E-001 1.90000000E-001 0.00000000E+000
 5.43838000E-001 1.90000000E-001 0.00000000E+000
 5.40328000E-001 1.90000000E-001 0.00000000E+000
 5.36818000E-001 1.90000000E-001 0.00000000E+000
 5.33308000E-001 1.90000000E-001 0.00000000E+000
 5.29798000E-001 1.90000000E-001 0.00000000E+000
 5.26288000E-001 1.90000000E-001 0.00000000E+000
 5.22778000E-001 1.90000000E-001 0.00000000E+000
 5.19268000E-001 1.90000000E-001 0.00000000E+000
 5.15758000E-001 1.90000000E-001 0.00000000E+000
 5.12247000E-001 1.90000000E-001 0.00000000E+000
 5.08737000E-001 1.90000000E-001 0.00000000E+000
 5.05227000E-001 1.90000000E-001 0.00000000E+000
 5.01717000E-001 1.90000000E-001 0.00000000E+000
 4.98207000E-001 1.90000000E-001 0.00000000E+000
 4.94697000E-001 1.90000000E-001 0.00000000E+000
 4.91187000E-001 1.90000000E-001 0.00000000E+000
 4.87677000E-001 1.90000000E-001 0.00000000E+000
 4.84167000E-001 1.90000000E-001 0.00000000E+000
 4.80657000E-001 1.90000000E-001 0.00000000E+000
 4.77146000E-001 1.90000000E-001 0.00000000E+000
 4.73636000E-001 1.90000000E-001 0.00000000E+000
 4.70126000E-001 1.90000000E-001 0.00000000E+000
 4.66616000E-001 1.90000000E-001 0.00000000E+000
 4.63106000E-001 1.90000000E-001 0.00000000E+000
 4.59596000E-001 1.90000000E-001 0.00000000E+000
 4.56086000E-001 1.90000000E-001 0.00000000E+000
 4.52576000E-001 1.90000000E-001 0.00000000E+000
 4.49066000E-001 1.90000000E-001 0.00000000E+000
 4.45556000E-001 1.90000000E-001 0.00000000E+000
 4.42045000E-001 1.90000000E-001 0.00000000E+000
 4.38535000E-001 1.90000000E-001 0.00000000E+000
 4.35025000E-001 1.90000000E-001 0.00000000E+000
 4.31515000E-001 1.90000000E-001 0.00000000E+000
 4.28005000E-001 1.90000000E-001 0.00000000E+000
 4.24495000E-001 1.90000000E-001 0.00000000E+000
 4.20985000E-001 1.90000000E-001 0.00000000E+000
 4.17475000E-001 1.90000000E-001 0.00000000E+000
 4.13965000E-001 1.90000000E-001 0.00000000E+000
 4.10455000E-001 1.90000000E-001 0.00000000E+000
 4.06944000E-001 1.90000000E-001 0.00000000E+000
 4.03434000E-001 1.90000000E-001 0.00000000E+000
 3.99924000E-001 1.90000000E-001 0.00000000E+000
 3.96414000E-001 1.90000000E-001 0.00000000E+000
 3.92904000E-001 1.90000000E-001 0.00000000E+000
 3.89394000E-001 1.90000000E-001 0.00000000E+000
 3.85884000E-001 1.90000000E-001 0.00000000E+000
 3.82374000E-001 1.90000000E-001 0.00000000E+000
 3.78864000E-001 1.90000000E-001 0.00000000E+000
 3.75353000E-001 1.90000000E-001 0.00000000E+000
 3.71843000E-001 1.90000000E-001 0.00000000E+000
 3.68333000E-001 1.90000000E-001 0.00000000E+000
 3.64823000E-001 1.90000000E-001 0.00000000E+000
 3.61313000E-001 1.90000000E-001 0.00000000E+000
 3.57803000E-001 1.90000000E-001 0.00000000E+000
 3.54293000E-001 1.90000000E-001 0.00000000E+000
 3.50783000E-001 1.90000000E-001 0.00000000E+000
 3.47273000E-001 1.90000000E-001 0.00000000E+000
 3.43763000E-001 1.90000000E-001 0.00000000E+000
 3.40252000E-001 1.90000000E-001 0.00000000E+000
 3.36742000E-001 1.90000000E-001 0.00000000E+000
 3.33232000E-001 1.90000000E-001 0.00000000E+000
 3.29722000E-001 1.90000000E-001 0.00000000E+000
 3.26212000E-001 1.90000000E-001 0.00000000E+000
 3.22702000E-001 1.90000000E-001 0.00000000E+000
 3.19192000E-001 1.90000000E-001 0.00000000E+000
 3.15682000E-001 1.90000000E-001 0.00000000E+000
 3.12172000E-001 1.90000000E-001 0.00000000E+000
 3.08661000E-001 1.90000000E-001 0.00000000E+000
 3.05151000E-001 1.90000000E-001 0.00000000E+000
 3.01641000E-001 1.90000000E-001 0.00000000E+000
 2.98131000E-001 1.90000000E-001 0.00000000E+000
 2.94621000E-001 1.90000000E-001 0.00000000E+000
 2.91111000E-001 1.90000000E-001 0.00000000E+000
 2.87601000E-001 1.90000000E-001 0.00000000E+000
 2.84091000E-001 1.90000000E-001 0.00000000E+000
 2.80581000E-001 1.90000000E-001 0.00000000E+000
 2.77071000E-001 1.90000000E-001 0.00000000E+000
 2.73560000E-001 1.90000000E-001 0.00000000E+000
 2.70050000E-001 1.90000000E-001 0.00000000E+000
 2.66540000E-001 1.90000000E-001 0.00000000E+000
 2.63030000E-001 1.90000000E-001 0.00000000E+000
 2.59520000E-001 1.90000000E-001 0.00000000E+000
 2.56010000E-001 1.90000000E-001 0.00000000E+000
 2.52500000E-001 1.90000000E-001 0.00000000E+000
 2.48990000E-001 1.90000000E-001 0.00000000E+000
 2.48990000E-001 1.91333000E-001 0.00000000E+000
 2.48990000E-001 1.92667000E-001 0.00000000E+000
 2.48990000E-001 1.94000000E-001 0.00000000E+000
 2.48990000E-001 1.95333000E-001 0.00000000E+000
 2.48990000E-001 1.96667000E-001 0.00000000E+000
 2.48990000E-001 1.98000000E-001 0.00000000E+000
 2.48990000E-001 1.99333000E-001 0.00000000E+000
 2.48990000E-001 2.00667000E-001 0.00000000E+000
 2.48990000E-001 2.02000000E-001 0.00000000E+000
 2.48990000E-001 2.03333000E-001 0.00000000E+000
 2.48990000E-001 2.04667000E-001 0.00000000E+000
 2.48990000E-001 2.06000000E-001 0.00000000E+000
 2.48990000E-001 2.07333000E-001 0.00000000E+000
 2.48990000E-001 2.08667000E-001 0.00000000E+000
 2.48990000E-001 2.10000000E-001 0.00000000E+000
 2.52500000E-001 2.10000000E-001 0.00000000E+000
 2.56010000E-001 2.10000000E-001 0.00000000E+000
 2.59520000E-001 2.10000000E-001 0.00000000E+000
 2.63030000E-001 2.10000000E-001 0.00000000E+000
 2.66540000E-001 2.10000000E-001 0.00000000E+000
 2.70050000E-001 2.10000000E-001 0.00000000E+000
 2.73560000E-001 2.10000000E-001 0.00000000E+000
 2.77071000E-001 2.10000000E-001 0.00000000E+000
 2.80581000E-001 2.10000000E-001 0.00000000E+000
 2.84091000E-001 2.10000000E-001 0.00000000E+000
 2.87601000E-001 2.10000000E-001 0.00000000E+000
 2.91111000E-001 2.10000000E-001 0.00000000E+000
 2.94621000E-001 2.10000000E-001 0.00000000E+000
 2.98131000E-001 2.10000000E-001 0.00000000E+000
 3.01641000E-001 2.10000000E-001 0.00000000E+000
 3.05151000E-001 2.10000000E-001 0.00000000E+000
 3.08661000E-001 2.10000000E-001 0.00000000E+000
 3.12172000E-001 2.10000000E-001 0.00000000E+000
 3.15682000E-001 2.10000000E-001 0.00000000E+000
 3.19192000E-001 2.10000000E-001 0.00000000E+000
 3.22702000E-001 2.10000000E-001 0.00000000E+000
 3.26212000E-001 2.10000000E-001 0.00000000E+000
 3.29722000E-001 2.10000000E-001 0.00000000E+000
 3.33232000E-001 2.10000000E-001 0.00000000E+000
 3.36742000E-001 2.10000000E-001 0.00000000E+000
 3.40252000E-001 2.10000000E-001 0.00000000E+000
 3.43763000E-001 2.10000000E-001 0.00000000E+000
 3.47273000E-001 2.10000000E-001 0.00000000E+000
 3.50783000E-001 2.10000000E-001 0.00000000E+000
 3.54293000E-001 2.10000000E-001 0.00000000E+000
 3.57803000E-001 2.10000000E-001 0.00000000E+000
 3.61313000E-001 2.10000000E-001 0.00000000E+000
 3.64823000E-001 2.10000000E-001 0.00000000E+000
 3.68333000E-001 2.10000000E-001 0.00000000E+000
 3.71843000E-001 2.10000000E-001 0.00000000E+000
 3.75353000E-001 2.10000000E-001 0.00000000E+000
 3.78864000E-001 2.10000000E-001 0.00000000E+000
 3.82374000E-001 2.10000000E-001 0.00000000E+000
 3.85884000E-001 2.10000000E-001 0.00000000E+000
 3.89394000E-001 2.10000000E-001 0.00000000E+000
 3.92904000E-001 2.10000000E-001 0.00000000E+000
 3.96414000E-001 2.10000000E-001 0.00000000E+000
 3.99924000E-001 2.10000000E-001 0.00000000E+000
 4.03434000E-001 2.10000000E-001 0.00000000E+000
 4.06944000E-001 2.10000000E-001 0.00000000E+000
 4.10455000E-001 2.10000000E-001 0.00000000E+000
 4.13965000E-001 2.10000000E-001 0.00000000E+000
 4.17475000E-001 2.10000000E-001 0.00000000E+000
 4.20985000E-001 2.10000000E-001 0.00000000E+000
 4.24495000E-001 2.10000000E-001 0.00000000E+000
 4.28005000E-001 2.10000000E-001 0.00000000E+000
 4.31515000E-001 2.10000000E-001 0.00000000E+000
 4.35025000E-001 2.10000000E-001 0.00000000E+000
 4.38535000E-001 2.10000000E-001 0.00000000E+000
 4.42045000E-001 2.10000000E-001 0.00000000E+000
 4.45556000E-001 2.10000000E-001 0.00000000E+000
 4.49066000E-001 2.10000000E-001 0.00000000E+000
 4.52576000E-001 2.10000000E-001 0.00000000E+000
 4.56086000E-001 2.10000000E-001 0.00000000E+000
 4.59596000E-001 2.10000000E-001 0.00000000E+000
 4.63106000E-001 2.10000000E-001 0.00000000E+000
 4.66616000E-001 2.10000000E-001 0.00000000E+000
 4.70126000E-001 2.10000000E-001 0.00000000E+000
 4.73636000E-001 2.10000000E-001 0.00000000E+000
 4.77146000E-001 2.10000000E-001 0.00000000E+000
 4.80657000E-001 2.10000000E-001 0.00000000E+000
 4.84167000E-001 2.10000000E-001 0.00000000E+000
 4.87677000E-001 2.10000000E-001 0.00000000E+000
 4.91187000E-001 2.10000000E-001 0.00000000E+000
 4.94697000E-001 2.10000000E-001 0.00000000E+000
[...]
POINT_DATA 3232
VECTORS DISP double
 -6.7102900E-004 -2.9138600E-002  4.5600200E-005
 -9.2790000E-004 -2.9113800E-002  4.5549100E-005
 -1.1861100E-003 -2.9088400E-002  4.5389700E-005
 -1.4435300E-003 -2.9063200E-002  4.5136500E-005
 -1.7012800E-003 -2.9038000E-002  4.4811000E-005
 -1.9587900E-003 -2.9012800E-002  4.4427000E-005
 -2.2163700E-003 -2.8987500E-002  4.4003500E-005
 -2.4738700E-003 -2.8962400E-002  4.3558100E-005
 -2.7313800E-003 -2.8937200E-002  4.3110800E-005
 -2.9888500E-003 -2.8912000E-002  4.2680900E-005
 -3.2462600E-003 -2.8886900E-002  4.2286900E-005
 -3.5037400E-003 -2.8861800E-002  4.1946800E-005
 -3.7609900E-003 -2.8836700E-002  4.1674900E-005
 -4.0185200E-003 -2.8811700E-002  4.1486100E-005
 -4.2752500E-003 -2.8786600E-002  4.1380100E-005
 -4.5335800E-003 -2.8762400E-002  4.1344800E-005
 -4.4672100E-003 -2.8082500E-002  4.1296700E-005
 -4.4022700E-003 -2.7405500E-002  4.1195000E-005
 -4.3360600E-003 -2.6726300E-002  4.1057400E-005
 -4.2703500E-003 -2.6048800E-002  4.0879700E-005
 -4.2040000E-003 -2.5370200E-002  4.0663800E-005
 -4.1378000E-003 -2.4692800E-002  4.0400100E-005
 -4.0711500E-003 -2.4014800E-002  4.0083100E-005
 -4.0044700E-003 -2.3337900E-002  3.9701000E-005
 -3.9373700E-003 -2.2660800E-002  3.9245100E-005
 -3.8701200E-003 -2.1984800E-002  3.8702800E-005
 -3.8024300E-003 -2.1309000E-002  3.8064300E-005
 -3.7344800E-003 -2.0634500E-002  3.7317300E-005
 -3.6660500E-003 -1.9960600E-002  3.6452600E-005
 -3.5972400E-003 -1.9288300E-002  3.5459400E-005
 -3.5279100E-003 -1.8617200E-002  3.4330000E-005
 -3.4581200E-003 -1.7948100E-002  3.3056500E-005
 -3.3877300E-003 -1.7280800E-002  3.1633600E-005
 -3.3168300E-003 -1.6616200E-002  3.0057100E-005
 -3.2452700E-003 -1.5954100E-002  2.8324500E-005
 -3.1731500E-003 -1.5295400E-002  2.6436000E-005
 -3.1003400E-003 -1.4640200E-002  2.4392700E-005
 -3.0269600E-003 -1.3989200E-002  2.2198800E-005
 -2.9528700E-003 -1.3342800E-002  1.9859600E-005
 -2.8782300E-003 -1.2701600E-002  1.7383300E-005
 -2.8029200E-003 -1.2066100E-002  1.4779200E-005
 -2.7270700E-003 -1.1437000E-002  1.2058900E-005
 -2.6506500E-003 -1.0814900E-002  9.2357600E-006
 -2.5737400E-003 -1.0200400E-002  6.3243200E-006
 -2.4963800E-003 -9.5942100E-003  3.3415600E-006
 -2.4186300E-003 -8.9968900E-003  3.0429300E-007
 -2.3405600E-003 -8.4093400E-003 -2.7677500E-006
 -2.2622300E-003 -7.8320000E-003 -5.8557500E-006
 -2.1837600E-003 -7.2658000E-003 -8.9384300E-006
 -2.1051900E-003 -6.7112300E-003 -1.1995400E-005
 -2.0266500E-003 -6.1690800E-003 -1.5004900E-005
 -1.9481900E-003 -5.6400100E-003 -1.7945800E-005
 -1.8699500E-003 -5.1245900E-003 -2.0796800E-005
 -1.7920200E-003 -4.6236000E-003 -2.3536800E-005
 -1.7144800E-003 -4.1374500E-003 -2.6145900E-005
 -1.6374600E-003 -3.6669400E-003 -2.8604100E-005
 -1.5610300E-003 -3.2123600E-003 -3.0893500E-005
 -1.4853400E-003 -2.7744800E-003 -3.2996000E-005
 -1.4104200E-003 -2.3535200E-003 -3.4896300E-005
 -1.3364300E-003 -1.9500900E-003 -3.6579500E-005
 -1.2634000E-003 -1.5644500E-003 -3.8033100E-005
 -1.1914700E-003 -1.1969500E-003 -3.9246000E-005
 -1.1206900E-003 -8.4793200E-004 -4.0208800E-005
 -1.0511500E-003 -5.1747900E-004 -4.0914800E-005
 -9.8293000E-004 -2.0595900E-004 -4.1357900E-005
 -9.1607900E-004  8.6760900E-005 -4.1535800E-005
 -8.5068600E-004  3.6034800E-004 -4.1446100E-005
 -7.8677200E-004  6.1506500E-004 -4.1090300E-005
 -7.2444200E-004  8.5073200E-004 -4.0470000E-005
 -6.6368100E-004  1.0676200E-003 -3.9590100E-005
 -6.0460400E-004  1.2658000E-003 -3.8456000E-005
 -5.4718100E-004  1.4454700E-003 -3.7075500E-005
 -4.9151500E-004  1.6070200E-003 -3.5457500E-005
 -4.3758200E-004  1.7505100E-003 -3.3612100E-005
 -3.8545800E-004  1.8766500E-003 -3.1551600E-005
 -3.3514500E-004  1.9854200E-003 -2.9287600E-005
 -2.8667900E-004  2.0777200E-003 -2.6835100E-005
 -2.4009500E-004  2.1535900E-003 -2.4207300E-005
 -1.9539400E-004  2.2139700E-003 -2.1420600E-005
 -1.5263500E-004  2.2590800E-003 -1.8489900E-005
 -1.1179900E-004  2.2897600E-003 -1.5432300E-005
 -7.2954400E-005  2.3065100E-003 -1.2264100E-005
 -3.6084800E-005  2.3099900E-003 -9.0023800E-006
 -1.2388600E-006  2.3010100E-003 -5.6649800E-006
  3.1565900E-005  2.2800700E-003 -2.2683900E-006
  6.2328000E-005  2.2481600E-003  1.1684800E-006
  9.0971200E-005  2.2057500E-003  4.6295900E-006
  1.1756300E-004  2.1538700E-003  8.0956800E-006
  1.4195600E-004  2.0931100E-003  1.1550700E-005
  1.6429000E-004  2.0243300E-003  1.4975600E-005
  1.8435500E-004  1.9484600E-003  1.8353800E-005
  2.0234900E-004  1.8659700E-003  2.1667000E-005
  2.1802100E-004  1.7782400E-003  2.4897300E-005
  2.3160600E-004  1.6853100E-003  2.8027000E-005
  2.4284000E-004  1.5889900E-003  3.1036700E-005
  2.5196600E-004  1.4889400E-003  3.3908400E-005
  2.5873800E-004  1.3872800E-003  3.6620900E-005
  2.6338700E-004  1.2834300E-003  3.9154400E-005
  2.6570000E-004  1.1796300E-003  4.1485400E-005
  2.6589200E-004  1.0752300E-003  4.3590200E-005
  2.6378100E-004  9.7245700E-004  4.5441800E-005
  2.5957800E-004  8.7066700E-004  4.7009300E-005
  2.5312700E-004  7.7204100E-004  4.8260200E-005
  2.4463100E-004  6.7585700E-004  4.9152600E-005
  2.3398200E-004  5.8442100E-004  4.9643700E-005
  2.2132900E-004  4.9665900E-004  4.9675200E-005
  2.0670100E-004  4.1536800E-004  4.9187500E-005
  1.9004800E-004  3.3862400E-004  4.8096700E-005
  1.7176500E-004  2.7032200E-004  4.6316000E-005
  1.5124300E-004  2.0694500E-004  4.3720500E-005
  1.2977500E-004  1.5438000E-004  4.0179900E-005
  1.0539200E-004  1.0640600E-004  3.5496600E-005
  8.1558400E-005  7.2550500E-005  2.9475100E-005
  5.3364300E-005  4.1247700E-005  2.1784100E-005
  3.0647800E-005  2.9504400E-005  1.2200100E-005
  0.0000000E+000  0.0000000E+000  0.0000000E+000
  0.0000000E+000  0.0000000E+000  0.0000000E+000
  0.0000000E+000  0.0000000E+000  0.0000000E+000
  0.0000000E+000  0.0000000E+000  0.0000000E+000
  0.0000000E+000  0.0000000E+000  0.0000000E+000
  0.0000000E+000  0.0000000E+000  0.0000000E+000
  0.0000000E+000  0.0000000E+000  0.0000000E+000
  0.0000000E+000  0.0000000E+000  0.0000000E+000
  0.0000000E+000  0.0000000E+000  0.0000000E+000
  0.0000000E+000  0.0000000E+000  0.0000000E+000
  0.0000000E+000  0.0000000E+000  0.0000000E+000
  0.0000000E+000  0.0000000E+000  0.0000000E+000
  0.0000000E+000  0.0000000E+000  0.0000000E+000
  0.0000000E+000  0.0000000E+000  0.0000000E+000
  0.0000000E+000  0.0000000E+000  0.0000000E+000
  0.0000000E+000  0.0000000E+000  0.0000000E+000
 -3.2198300E-005  3.3149400E-005 -4.9100900E-006
 -5.4410400E-005  4.4525200E-005 -7.5034100E-006
 -8.3470500E-005  7.6219900E-005 -8.5310300E-006
 -1.0773200E-004  1.0928300E-004 -8.1818600E-006
 -1.3323400E-004  1.5709800E-004 -6.7835400E-006
 -1.5575000E-004  2.0864200E-004 -4.5169500E-006
 -1.7775800E-004  2.7179900E-004 -1.5743400E-006
 -1.9761700E-004  3.3894900E-004  1.9204400E-006
 -2.1616600E-004  4.1551200E-004  5.8488000E-006
 -2.3288100E-004  4.9565000E-004  1.0127000E-005
 -2.4783500E-004  5.8326800E-004  1.4678900E-005
 -2.6102900E-004  6.7372400E-004  1.9447000E-005
 -2.7217900E-004  7.6976800E-004  2.4380400E-005
 -2.8152800E-004  8.6774500E-004  2.9439500E-005
 -2.8864400E-004  9.6939300E-004  3.4588600E-005
 -2.9385600E-004  1.0719300E-003  3.9799900E-005
 -2.9670600E-004  1.1762200E-003  4.5046900E-005
 -2.9752400E-004  1.2802100E-003  5.0309800E-005
 -2.9589500E-004  1.3840400E-003  5.5567700E-005
 -2.9209900E-004  1.4862500E-003  6.0805800E-005
 -2.8581200E-004  1.5864700E-003  6.6006800E-005
 -2.7723400E-004  1.6835300E-003  7.1158900E-005
 -2.6615500E-004  1.7768900E-003  7.6247500E-005
 -2.5269500E-004  1.8654200E-003  8.1262000E-005
 -2.3674500E-004  1.9486200E-003  8.6190000E-005
 -2.1837900E-004  2.0252100E-003  9.1021200E-005
 -1.9755600E-004  2.0949100E-003  9.5744700E-005
 -1.7434600E-004  2.1561900E-003  1.0035000E-004
 -1.4874100E-004  2.2090300E-003  1.0482800E-004
 -1.2084400E-004  2.2517400E-003  1.0916700E-004
 -9.0649900E-005  2.2844000E-003  1.1336000E-004
 -5.8326800E-005  2.3053700E-003  1.1739400E-004
 -2.3855100E-005  2.3146300E-003  1.2126200E-004
  1.2527700E-005  2.3108300E-003  1.2495400E-004
  5.0839400E-005  2.2936400E-003  1.2845900E-004
  9.0799500E-005  2.2621800E-003  1.3177000E-004
  1.3239100E-004  2.2157300E-003  1.3487700E-004
  1.7532600E-004  2.1539200E-003  1.3777200E-004
  2.1951700E-004  2.0756900E-003  1.4044400E-004
  2.6470700E-004  1.9810700E-003  1.4288800E-004
  3.1070900E-004  1.8688800E-003  1.4509300E-004
  3.5731800E-004  1.7393100E-003  1.4705500E-004
  4.0425100E-004  1.5913300E-003  1.4876400E-004
  4.5134300E-004  1.4250200E-003  1.5021700E-004
  4.9825100E-004  1.2397900E-003  1.5140500E-004
  5.4481000E-004  1.0354300E-003  1.5232700E-004
  5.9067800E-004  8.1189000E-004  1.5297700E-004
  6.3564800E-004  5.6863100E-004  1.5335300E-004
  6.7942700E-004  3.0614600E-004  1.5345500E-004
  7.2173900E-004  2.3674100E-005  1.5328100E-004
  7.6237700E-004 -2.7795100E-004  1.5283300E-004
  8.0099400E-004 -5.9943600E-004  1.5211400E-004
  8.3746300E-004 -9.3990600E-004  1.5112800E-004
  8.7141500E-004 -1.2997300E-003  1.4988000E-004
  9.0275900E-004 -1.6782300E-003  1.4837800E-004
  9.3116600E-004 -2.0752600E-003  1.4663100E-004
  9.5654200E-004 -2.4904800E-003  1.4465000E-004
  9.7864700E-004 -2.9232000E-003  1.4244500E-004
  9.9735500E-004 -3.3733400E-003  1.4003000E-004
  1.0125500E-003 -3.8398400E-003  1.3742100E-004
  1.0240600E-003 -4.3227300E-003  1.3463200E-004
  1.0319000E-003 -4.8207900E-003  1.3168200E-004
  1.0358800E-003 -5.3339300E-003  1.2858600E-004
  1.0360900E-003 -5.8610200E-003  1.2536400E-004
  1.0324000E-003 -6.4017100E-003  1.2203500E-004
  1.0249000E-003 -6.9550800E-003  1.1861900E-004
  1.0135600E-003 -7.5204900E-003  1.1513600E-004
  9.9846600E-004 -8.0972700E-003  1.1160400E-004
  9.7967600E-004 -8.6845100E-003  1.0804400E-004
  9.5726500E-004 -9.2817500E-003  1.0447400E-004
  9.3137300E-004 -9.8879700E-003  1.0091400E-004
  9.0207000E-004 -1.0502800E-002  9.7380400E-005
  8.6955100E-004 -1.1125200E-002  9.3891500E-005
  8.3389900E-004 -1.1754800E-002  9.0462900E-005
  7.9533000E-004 -1.2390700E-002  8.7109700E-005
  7.5395700E-004 -1.3032500E-002  8.3845900E-005
  7.0998900E-004 -1.3679500E-002  8.0683600E-005
  6.6357600E-004 -1.4331200E-002  7.7634300E-005
  6.1490300E-004 -1.4987000E-002  7.4707500E-005
  5.6415200E-004 -1.5646400E-002  7.1911600E-005
  5.1148100E-004 -1.6309000E-002  6.9253100E-005
  4.5708700E-004 -1.6974400E-002  6.6737500E-005
  4.0110600E-004 -1.7642200E-002  6.4368500E-005
  3.4373100E-004 -1.8311900E-002  6.2148500E-005
  2.8508400E-004 -1.8983500E-002  6.0078600E-005
  2.2534000E-004 -1.9656400E-002  5.8158600E-005
  1.6460700E-004 -2.0330600E-002  5.6387400E-005
  1.0303200E-004 -2.1005800E-002  5.4762600E-005
  4.0713100E-005 -2.1681800E-002  5.3281500E-005
 -2.2237000E-005 -2.2358400E-002  5.1940300E-005
 -8.5726300E-005 -2.3035600E-002  5.0735600E-005
 -1.4968700E-004 -2.3713100E-002  4.9663100E-005
 -2.1401700E-004 -2.4391000E-002  4.8719900E-005
 -2.7871600E-004 -2.5068900E-002  4.7902400E-005
 -3.4362300E-004 -2.5747300E-002  4.7209300E-005
 -4.0886900E-004 -2.6425300E-002  4.6639100E-005
 -4.7409500E-004 -2.7103900E-002  4.6192400E-005
 -5.3974500E-004 -2.7781800E-002  4.5869700E-005
 -6.0486800E-004 -2.8460800E-002  4.5669300E-005
 -8.6297000E-004 -2.8435200E-002  4.5615100E-005
 -7.9707300E-004 -2.7756900E-002  4.5811800E-005
 -7.3180300E-004 -2.7078500E-002  4.6131400E-005
 -6.6632200E-004 -2.6400200E-002  4.6571500E-005
 -6.0115500E-004 -2.5721900E-002  4.7132900E-005
 -5.3610600E-004 -2.5043700E-002  4.7814800E-005
 -4.7133500E-004 -2.4365600E-002  4.8618600E-005
 -4.0685400E-004 -2.3687700E-002  4.9545900E-005
 -3.4271200E-004 -2.3010100E-002  5.0599700E-005
 -2.7900100E-004 -2.2332900E-002  5.1783100E-005
 -2.1575800E-004 -2.1656200E-002  5.3100000E-005
 -1.5310100E-004 -2.0980200E-002  5.4553600E-005
 -9.1092200E-005 -2.0305000E-002  5.6147600E-005
 -2.9861900E-005 -1.9630700E-002  5.7884500E-005
  3.0499100E-005 -1.8957700E-002  5.9766400E-005
  8.9849200E-005 -1.8286100E-002  6.1794400E-005
  1.4807200E-004 -1.7616200E-002  6.3968700E-005
  2.0501200E-004 -1.6948400E-002  6.6288000E-005
  2.6053700E-004 -1.6283000E-002  6.8750000E-005
  3.1447600E-004 -1.5620300E-002  7.1350900E-005
  3.6669200E-004 -1.4960900E-002  7.4085500E-005
  4.1699500E-004 -1.4305100E-002  7.6947300E-005
  4.6525400E-004 -1.3653400E-002  7.9928000E-005
  5.1126700E-004 -1.3006400E-002  8.3018300E-005
  5.5491000E-004 -1.2364700E-002  8.6207200E-005
  5.9598300E-004 -1.1728800E-002  8.9482600E-005
  6.3436600E-004 -1.1099300E-002  9.2831100E-005
  6.6988300E-004 -1.0476900E-002  9.6237900E-005
  7.0240900E-004 -9.8623500E-003  9.9687400E-005
  7.3181600E-004 -9.2561900E-003  1.0316300E-004
  7.5796400E-004 -8.6592500E-003  1.0664700E-004
  7.8079200E-004 -8.0721500E-003  1.1012100E-004
  8.0015200E-004 -7.4956900E-003  1.1356800E-004
  8.1604600E-004 -6.9305600E-003  1.1696700E-004
  8.2833900E-004 -6.3774800E-003  1.2030000E-004
  8.3708300E-004 -5.8372300E-003  1.2354700E-004
  8.4218500E-004 -5.3103900E-003  1.2669000E-004
  8.4371900E-004 -4.7978500E-003  1.2971000E-004
  8.4167300E-004 -4.3000200E-003  1.3258800E-004
  8.3611000E-004 -3.8178300E-003  1.3530900E-004
  8.2713000E-004 -3.3515900E-003  1.3785500E-004
  8.1476400E-004 -2.9021500E-003  1.4021000E-004
  7.9922700E-004 -2.4698100E-003  1.4236200E-004
  7.8053000E-004 -2.0552200E-003  1.4429600E-004
  7.5897100E-004 -1.6587400E-003  1.4600100E-004
  7.3457500E-004 -1.2807200E-003  1.4746700E-004
  7.0767000E-004 -9.2162300E-004  1.4868600E-004
  6.7834300E-004 -5.8150000E-004  1.4965000E-004
  6.4689100E-004 -2.6086700E-004  1.5035400E-004
  6.1350200E-004  4.0490100E-005  1.5079400E-004
  5.7839600E-004  3.2208600E-004  1.5096700E-004
  5.4187700E-004  5.8428200E-004  1.5087100E-004
  5.0407800E-004  8.2675800E-004  1.5050800E-004
  4.6539100E-004  1.0498900E-003  1.4987800E-004
  4.2589100E-004  1.2536400E-003  1.4898300E-004
  3.8599800E-004  1.4383200E-003  1.4782800E-004
  3.4577800E-004  1.6042000E-003  1.4641500E-004
  3.0561500E-004  1.7515000E-003  1.4475200E-004
  2.6561300E-004  1.8807800E-003  1.4284300E-004
  2.2606600E-004  1.9922300E-003  1.4069500E-004
  1.8714800E-004  2.0866000E-003  1.3831400E-004
  1.4903500E-004  2.1641300E-003  1.3571000E-004
  1.1197100E-004  2.2256300E-003  1.3288900E-004
  7.6028100E-005  2.2715200E-003  1.2986000E-004
  4.1479600E-005  2.3025200E-003  1.2663100E-004
  8.3390900E-006  2.3193300E-003  1.2321100E-004
 -2.3142200E-005  2.3225000E-003  1.1960900E-004
 -5.2959000E-005  2.3130300E-003  1.1583400E-004
 -8.0932500E-005  2.2913000E-003  1.1189500E-004
 -1.0702100E-004  2.2585200E-003  1.0780000E-004
 -1.3115300E-004  2.2149900E-003  1.0356100E-004
 -1.5322600E-004  2.1620400E-003  9.9184600E-005
 -1.7328200E-004  2.0999500E-003  9.4682100E-005
 -1.9116500E-004  2.0300700E-003  9.0062800E-005
 -2.0700300E-004  1.9527500E-003  8.5336500E-005
 -2.2062100E-004  1.8692800E-003  8.0513500E-005
 -2.3218600E-004  1.7800700E-003  7.5604300E-005
 -2.4154900E-004  1.6864000E-003  7.0620100E-005
 -2.4886600E-004  1.5886400E-003  6.5572400E-005
 -2.5405200E-004  1.4881400E-003  6.0473800E-005
 -2.5721300E-004  1.3851400E-003  5.5337600E-005
 -2.5835900E-004  1.2811600E-003  5.0178600E-005
 -2.5751300E-004  1.1761700E-003  4.5013100E-005
 -2.5479400E-004  1.0720000E-003  3.9859700E-005
 -2.5013100E-004  9.6814800E-004  3.4739400E-005
 -2.4376200E-004  8.6696500E-004  2.9676400E-005
 -2.3549100E-004  7.6729600E-004  2.4699200E-005
 -2.2572200E-004  6.7214800E-004  1.9841300E-005
 -2.1404800E-004  5.7955100E-004  1.5142900E-005
 -2.0116800E-004  4.9334700E-004  1.0651900E-005
 -1.8626500E-004  4.1053600E-004  6.4267100E-006
 -1.7062300E-004  3.3604100E-004  2.5381200E-006
 -1.5258200E-004  2.6550700E-004 -9.2702900E-007
 -1.3463800E-004  2.0535100E-004 -3.8609800E-006
 -1.1339200E-004  1.4932900E-004 -6.1326700E-006
 -9.3841200E-005  1.0602900E-004 -7.5725000E-006
 -6.9077600E-005  6.6627700E-005 -7.9853400E-006
 -4.9374100E-005  4.2259000E-005 -7.0961500E-006
 -2.0968300E-005  2.1393700E-005 -4.6864400E-006
 -1.1202200E-003 -2.8410000E-002  4.5454500E-005
 -1.0549300E-003 -2.7731700E-002  4.5644500E-005
 -9.8918900E-004 -2.7053300E-002  4.5952200E-005
 -9.2392400E-004 -2.6375000E-002  4.6373800E-005
 -8.5854800E-004 -2.5696600E-002  4.6909500E-005
 -7.9349400E-004 -2.5018400E-002  4.7559200E-005
 -7.2857100E-004 -2.4340300E-002  4.8323900E-005
 -6.6394700E-004 -2.3662400E-002  4.9205200E-005
 -5.9961400E-004 -2.2984800E-002  5.0205400E-005
 -5.3564600E-004 -2.2307500E-002  5.1327600E-005
 -4.7211400E-004 -2.1630800E-002  5.2574500E-005
 -4.0907600E-004 -2.0954700E-002  5.3949500E-005
 -3.4663300E-004 -2.0279500E-002  5.5455000E-005
 -2.8486200E-004 -1.9605200E-002  5.7093600E-005
 -2.2387900E-004 -1.8932100E-002  5.8866700E-005
 -1.6378400E-004 -1.8260500E-002  6.0775100E-005
 -1.0470500E-004 -1.7590600E-002  6.2818800E-005
 -4.6763000E-005 -1.6922800E-002  6.4996300E-005
  9.8979300E-006 -1.6257400E-002  6.7305400E-005
  6.5151300E-005 -1.5594700E-002  6.9742200E-005
  1.1882900E-004 -1.4935300E-002  7.2302000E-005
  1.7081200E-004 -1.4279500E-002  7.4978300E-005
  2.2090700E-004 -1.3627900E-002  7.7763700E-005
  2.6901000E-004 -1.2981000E-002  8.0649300E-005
  3.1491400E-004 -1.2339300E-002  8.3624900E-005
  3.5852200E-004 -1.1703500E-002  8.6679200E-005
  3.9963500E-004 -1.1074200E-002  8.9799700E-005
  4.3815600E-004 -1.0452000E-002  9.2973000E-005
  4.7392100E-004 -9.8376100E-003  9.6184300E-005
  5.0681600E-004 -9.2317100E-003  9.9418500E-005
  5.3673800E-004 -8.6350100E-003  1.0265900E-004
  5.6354700E-004 -8.0482200E-003  1.0589000E-004
  5.8722000E-004 -7.4720800E-003  1.0909400E-004
  6.0759500E-004 -6.9073000E-003  1.1225300E-004
  6.2472400E-004 -6.3546300E-003  1.1534900E-004
  6.3845000E-004 -5.8147500E-003  1.1836600E-004
  6.4887100E-004 -5.2884300E-003  1.2128500E-004
  6.5588400E-004 -4.7762700E-003  1.2409000E-004
  6.5958700E-004 -4.2790200E-003  1.2676400E-004
  6.5997900E-004 -3.7972600E-003  1.2929100E-004
  6.5711700E-004 -3.3316400E-003  1.3165600E-004
  6.5113700E-004 -2.8826800E-003  1.3384500E-004
  6.4203500E-004 -2.4509500E-003  1.3584500E-004
  6.3007800E-004 -2.0369100E-003  1.3764300E-004
  6.1522600E-004 -1.6409900E-003  1.3923000E-004
  5.9782500E-004 -1.2636100E-003  1.4059600E-004
  5.7785500E-004 -9.0502400E-004  1.4173300E-004
  5.5566900E-004 -5.6558300E-004  1.4263500E-004
  5.3132800E-004 -2.4541800E-004  1.4329600E-004
  5.0511900E-004  5.5242600E-005  1.4371300E-004
  4.7723500E-004  3.3638800E-004  1.4388200E-004
  4.4784800E-004  5.9791800E-004  1.4380400E-004
  4.1728800E-004  8.3993300E-004  1.4347700E-004
  3.8562100E-004  1.0624700E-003  1.4290400E-004
  3.5326700E-004  1.2657300E-003  1.4208500E-004
  3.2023300E-004  1.4499000E-003  1.4102400E-004
  2.8695100E-004  1.6152500E-003  1.3972500E-004
  2.5344300E-004  1.7621200E-003  1.3819200E-004
  2.2006800E-004  1.8908700E-003  1.3643100E-004
  1.8692400E-004  2.0019300E-003  1.3444700E-004
  1.5423800E-004  2.0957900E-003  1.3224700E-004
  1.2221500E-004  2.1729400E-003  1.2983700E-004
  9.0936100E-005  2.2339800E-003  1.2722400E-004
  6.0691000E-005  2.2794700E-003  1.2441600E-004
  3.1452200E-005  2.3100900E-003  1.2142100E-004
  3.5381900E-006  2.3264300E-003  1.1824500E-004
 -2.3124500E-005  2.3293100E-003  1.1489700E-004
 -4.8258900E-005  2.3193200E-003  1.1138500E-004
 -7.1917400E-005  2.2973500E-003  1.0771700E-004
 -9.3923400E-005  2.2640000E-003  1.0390100E-004
 -1.1426200E-004  2.2202800E-003  9.9944800E-005
 -1.3288300E-004  2.1667300E-003  9.5858100E-005
 -1.4969800E-004  2.1044600E-003  9.1648800E-005
 -1.6476400E-004  2.0339700E-003  8.7325700E-005
 -1.7795200E-004  1.9564600E-003  8.2897600E-005
 -1.8937300E-004  1.8723700E-003  7.8373800E-005
 -1.9891800E-004  1.7829800E-003  7.3763900E-005
 -2.0668100E-004  1.6886400E-003  6.9077700E-005