# vtk DataFile Version 3.0
MMH: CalculiX output 'object.frd' file to 'vtk' format
ASCII
DATASET UNSTRUCTURED_GRID
POINTS 3232 double
 6.00000000E-001 2.10000000E-001 0.00000000E+000
 6.00000000E-001 2.08667000E-001 0.00000000E+000
 6.00000000E-001 2.07333000E-001 0.00000000E+000
 6.00000000E-001 2.06000000E-001 0.00000000E+000
 6.00000000E-001 2.04667000E-001 0.00000000E+000
 6.00000000E-001 2.03333000E-001 0.00000000E+000
 6.00000000E-001 2.02000000E-001 0.00000000E+000
 6.00000000E-001 2.00667000E-001 0.00000000E+000
 6.00000000E-001 1.99333000E-001 0.00000000E+000
 6.00000000E-001 1.98000000E-001 0.00000000E+000
 6.00000000E-001 1.96667000E-001 0.00000000E+000
 6.00000000E-001 1.95333000E-001 0.00000000E+000
 6.00000000E-001 1.94000000E-001 0.00000000E+000
 6.00000000E-001 1.92667000E-001 0.00000000E+000
 6.00000000E-001 1.91333000E-001 0.00000000E+000
 6.00000000E-001 1.90000000E-001 0.00000000E+000
 5.96490000E-001 1.90000000E-001 0.00000000E+000
 5.92980000E-001 1.90000000E-001 0.00000000E+000
 5.89470000E-001 1.90000000E-001 0.00000000E+000
 5.85960000E-001 1.90000000E-001 0.00000000E+000
 5.82449000E-001 1.90000000E-001 0.00000000E+000
 5.78939000E-001 1.90000000E-001 0.00000000E+000
 5.75429000E-001 1.90000000E-001 0.00000000E+000
 5.71919000E-001 1.90000000E-001 0.00000000E+000
 5.68409000E-001 1.90000000E-001 0.00000000E+000
 5.64899000E-001 1.90000000E-001 0.00000000E+000
 5.61389000E-001 1.90000000E-001 0.00000000E+000
 5.57879000E-001 1.90000000E-001 0.00000000E+000
 5.54369000E-001 1.90000000E-001 0.00000000E+000
 5.50859000E-001 1.90000000E-001 0.00000000E+000
 5.47348000E-001 1.90000000E-001 0.00000000E+000
 5.43838000E-001 1.90000000E-001 0.00000000E+000
 5.40328000E-001 1.90000000E-001 0.00000000E+000
 5.36818000E-001 1.90000000E-001 0.00000000E+000
 5.33308000E-001 1.90000000E-001 0.00000000E+000
 5.29798000E-001 1.90000000E-001 0.00000000E+000
 5.26288000E-001 1.90000000E-001 0.00000000E+000
 5.22778000E-001 1.90000000E-001 0.00000000E+000
 5.19268000E-001 1.90000000E-001 0.00000000E+000
 5.15758000E-001 1.90000000E-001 0.00000000E+000
 5.12247000E-001 1.90000000E-001 0.00000000E+000
 5.08737000E-001 1.90000000E-001 0.00000000E+000
 5.05227000E-001 1.90000000E-001 0.00000000E+000
 5.01717000E-001 1.90000000E-001 0.00000000E+000
 4.98207000E-001 1.90000000E-001 0.00000000E+000
 4.94697000E-001 1.90000000E-001 0.00000000E+000
 4.91187000E-001 1.90000000E-001 0.00000000E+000
 4.87677000E-001 1.90000000E-001 0.00000000E+000
 4.84167000E-001 1.90000000E-001 0.00000000E+000
 4.80657000E-001 1.90000000E-001 0.00000000E+000
 4.77146000E-001 1.90000000E-001 0.00000000E+000
 4.73636000E-001 1.90000000E-001 0.00000000E+000
 4.70126000E-001 1.90000000E-001 0.00000000E+000
 4.66616000E-001 1.90000000E-001 0.00000000E+000
 4.63106000E-001 1.90000000E-001 0.00000000E+000
 4.59596000E-001 1.90000000E-001 0.00000000E+000
 4.56086000E-001 1.90000000E-001 0.00000000E+000
 4.52576000E-001 1.90000000E-001 0.00000000E+000
 4.49066000E-001 1.90000000E-001 0.00000000E+000
 4.45556000E-001 1.90000000E-001 0.00000000E+000
 4.42045000E-001 1.90000000E-001 0.00000000E+000
 4.38535000E-001 1.90000000E-001 0.00000000E+000
 4.35025000E-001 1.90000000E-001 0.00000000E+000
 4.31515000E-001 1.90000000E-001 0.00000000E+000
 4.28005000E-001 1.90000000E-001 0.00000000E+000
 4.24495000E-001 1.90000000E-001 0.00000000E+000
 4.20985000E-001 1.90000000E-001 0.00000000E+000
 4.17475000E-001 1.90000000E-001 0.00000000E+000
 4.13965000E-001 1.90000000E-001 0.00000000E+000
 4.10455000E-001 1.90000000E-001 0.00000000E+000
 4.06944000E-001 1.90000000E-001 0.00000000E+000
 4.03434000E-001 1.90000000E-001 0.00000000E+000
 3.99924000E-001 1.90000000E-001 0.00000000E+000
 3.96414000E-001 1.90000000E-001 0.00000000E+000
 3.92904000E-001 1.90000000E-001 0.00000000E+000
 3.89394000E-001 1.90000000E-001 0.00000000E+000
 3.85884000E-001 1.90000000E-001 0.00000000E+000
 3.82374000E-001 1.90000000E-001 0.00000000E+000
 3.78864000E-001 1.90000000E-001 0.00000000E+000
 3.75353000E-001 1.90000000E-001 0.00000000E+000
 3.71843000E-001 1.90000000E-001 0.00000000E+000
 3.68333000E-001 1.90000000E-001 0.00000000E+000
 3.64823000E-001 1.90000000E-001 0.00000000E+000
 3.61313000E-001 1.90000000E-001 0.00000000E+000
 3.57803000E-001 1.90000000E-001 0.00000000E+000
 3.54293000E-001 1.90000000E-001 0.00000000E+000
 3.50783000E-001 1.90000000E-001 0.00000000E+000
 3.47273000E-001 1.90000000E-001 0.00000000E+000
 3.43763000E-001 1.90000000E-001 0.00000000E+000
 3.40252000E-001 1.90000000E-001 0.00000000E+000
 3.36742000E-001 1.90000000E-001 0.00000000E+000
 3.33232000E-001 1.90000000E-001 0.00000000E+000
 3.29722000E-001 1.90000000E-001 0.00000000E+000
 3.26212000E-001 1.90000000E-001 0.00000000E+000
 3.22702000E-001 1.90000000E-001 0.00000000E+000
 3.19192000E-001 1.90000000E-001 0.00000000E+000
 3.15682000E-001 1.90000000E-001 0.00000000E+000
 3.12172000E-001 1.90000000E-001 0.00000000E+000
 3.08661000E-001 1.90000000E-001 0.00000000E+000
 3.05151000E-001 1.90000000E-001 0.00000000E+000
 3.01641000E-001 1.90000000E-001 0.00000000E+000
 2.98131000E-001 1.90000000E-001 0.00000000E+000
 2.94621000E-001 1.90000000E-001 0.00000000E+000
 2.91111000E-001 1.90000000E-001 0.00000000E+000
 2.87601000E-001 1.90000000E-001 0.00000000E+000
 2.84091000E-001 1.90000000E-001 0.00000000E+000
 2.80581000E-001 1.90000000E-001 0.00000000E+000
 2.77071000E-001 1.90000000E-001 0.00000000E+000
 2.73560000E-001 1.90000000E-001 0.00000000E+000
 2.70050000E-001 1.90000000E-001 0.00000000E+000
 2.66540000E-001 1.90000000E-001 0.00000000E+000
 2.63030000E-001 1.90000000E-001 0.00000000E+000
 2.59520000E-001 1.90000000E-001 0.00000000E+000
 2.56010000E-001 1.90000000E-001 0.00000000E+000
 2.52500000E-001 1.90000000E-001 0.00000000E+000
 2.48990000E-001 1.90000000E-001 0.00000000E+000
 2.48990000E-001 1.91333000E-001 0.00000000E+000
 2.48990000E-001 1.92667000E-001 0.00000000E+000
 2.48990000E-001 1.94000000E-001 0.00000000E+000
 2.48990000E-001 1.95333000E-001 0.00000000E+000
 2.48990000E-001 1.96667000E-001 0.00000000E+000
 2.48990000E-001 1.98000000E-001 0.00000000E+000
 2.48990000E-001 1.99333000E-001 0.00000000E+000
 2.48990000E-001 2.00667000E-001 0.00000000E+000
 2.48990000E-001 2.02000000E-001 0.00000000E+000
 2.48990000E-001 2.03333000E-001 0.00000000E+000
 2.48990000E-001 2.04667000E-001 0.00000000E+000
 2.48990000E-001 2.06000000E-001 0.00000000E+000
 2.48990000E-001 2.07333000E-001 0.00000000E+000
 2.48990000E-001 2.08667000E-001 0.00000000E+000
 2.48990000E-001 2.10000000E-001 0.00000000E+000
 2.52500000E-001 2.10000000E-001 0.00000000E+000
 2.56010000E-001 2.10000000E-001 0.00000000E+000
 2.59520000E-001 2.10000000E-001 0.00000000E+000
 2.63030000E-001 2.10000000E-001 0.00000000E+000
 2.66540000E-001 2.10000000E-001 0.00000000E+000
 2.70050000E-001 2.10000000E-001 0.00000000E+000
 2.73560000E-001 2.10000000E-001 0.00000000E+000
 2.77071000E-001 2.10000000E-001 0.00000000E+000
 2.80581000E-001 2.10000000E-001 0.00000000E+000
 2.84091000E-001 2.10000000E-001 0.00000000E+000
 2.87601000E-001 2.10000000E-001 0.00000000E+000
 2.91111000E-001 2.10000000E-001 0.00000000E+000
 2.94621000E-001 2.10000000E-001 0.00000000E+000
 2.98131000E-001 2.10000000E-001 0.00000000E+000
 3.01641000E-001 2.10000000E-001 0.00000000E+000
 3.05151000E-001 2.10000000E-001 0.00000000E+000
 3.08661000E-001 2.10000000E-001 0.00000000E+000
 3.12172000E-001 2.10000000E-001 0.00000000E+000
 3.15682000E-001 2.10000000E-001 0.00000000E+000
 3.19192000E-001 2.10000000E-001 0.00000000E+000
 3.22702000E-001 2.10000000E-001 0.00000000E+000
 3.26212000E-001 2.10000000E-001 0.00000000E+000
 3.29722000E-001 2.10000000E-001 0.00000000E+000
 3.33232000E-001 2.10000000E-001 0.00000000E+000
 3.36742000E-001 2.10000000E-001 0.00000000E+000
 3.40252000E-001 2.10000000E-001 0.00000000E+000
 3.43763000E-001 2.10000000E-001 0.00000000E+000
 3.47273000E-001 2.10000000E-001 0.00000000E+000
 3.50783000E-001 2.10000000E-001 0.00000000E+000
 3.54293000E-001 2.10000000E-001 0.00000000E+000
 3.57803000E-001 2.10000000E-001 0.00000000E+000
 3.61313000E-001 2.10000000E-001 0.00000000E+000
 3.64823000E-001 2.10000000E-001 0.00000000E+000
 3.68333000E-001 2.10000000E-001 0.00000000E+000
 3.71843000E-001 2.10000000E-001 0.00000000E+000
 3.75353000E-001 2.10000000E-001 0.00000000E+000
 3.78864000E-001 2.10000000E-001 0.00000000E+000
 3.82374000E-001 2.10000000E-001 0.00000000E+000
 3.85884000E-001 2.10000000E-001 0.00000000E+000
 3.89394000E-001 2.10000000E-001 0.00000000E+000
 3.92904000E-001 2.10000000E-001 0.00000000E+000
 3.96414000E-001 2.10000000E-001 0.00000000E+000
 3.99924000E-001 2.10000000E-001 0.00000000E+000
 4.03434000E-001 2.10000000E-001 0.00000000E+000
 4.06944000E-001 2.10000000E-001 0.00000000E+000
 4.10455000E-001 2.10000000E-001 0.00000000E+000
 4.13965000E-001 2.10000000E-001 0.00000000E+000
 4.17475000E-001 2.10000000E-001 0.00000000E+000
 4.20985000E-001 2.10000000E-001 0.00000000E+000
 4.24495000E-001 2.10000000E-001 0.00000000E+000
 4.28005000E-001 2.10000000E-001 0.00000000E+000
 4.31515000E-001 2.10000000E-001 0.00000000E+000
 4.35025000E-001 2.10000000E-001 0.00000000E+000
 4.38535000E-001 2.10000000E-001 0.00000000E+000
 4.42045000E-001 2.10000000E-001 0.00000000E+000
 4.45556000E-001 2.10000000E-001 0.00000000E+000
 4.49066000E-001 2.10000000E-001 0.00000000E+000
 4.52576000E-001 2.10000000E-001 0.00000000E+000
 4.56086000E-001 2.10000000E-001 0.00000000E+000
 4.59596000E-001 2.10000000E-001 0.00000000E+000
 4.63106000E-001 2.10000000E-001 0.00000000E+000
 4.66616000E-001 2.10000000E-001 0.00000000E+000
 4.70126000E-001 2.10000000E-001 0.00000000E+000
 4.73636000E-001 2.10000000E-001 0.00000000E+000
 4.77146000E-001 2.10000000E-001 0.00000000E+000
 4.80657000E-001 2.10000000E-001 0.00000000E+000
 4.84167000E-001 2.10000000E-001 0.00000000E+000
 4.87677000E-001 2.10000000E-001 0.00000000E+000
 4.91187000E-001 2.10000000E-001 0.00000000E+000
 4.94697000E-001 2.10000000E-001 0.00000000E+000
[...]
POINT_DATA 3232
VECTORS DISP double
 -1.8520800E-003 -2.5366600E-002  1.1726200E-006
 -2.2033200E-003 -2.5320300E-002  1.0393000E-006
 -2.5560700E-003 -2.5272500E-002  6.4114300E-007
 -2.9078600E-003 -2.5225200E-002  8.6297400E-009
 -3.2600500E-003 -2.5177700E-002 -8.1899400E-007
 -3.6119400E-003 -2.5130300E-002 -1.8078400E-006
 -3.9639600E-003 -2.5082900E-002 -2.9137300E-006
 -4.3158400E-003 -2.5035600E-002 -4.0911100E-006
 -4.6678300E-003 -2.4988300E-002 -5.2902400E-006
 -5.0197100E-003 -2.4941000E-002 -6.4615400E-006
 -5.3717000E-003 -2.4893700E-002 -7.5557000E-006
 -5.7236200E-003 -2.4846500E-002 -8.5271500E-006
 -6.0757000E-003 -2.4799300E-002 -9.3332500E-006
 -6.4275500E-003 -2.4752100E-002 -9.9398800E-006
 -6.7799200E-003 -2.4704800E-002 -1.0315400E-005
 -7.1313800E-003 -2.4657600E-002 -1.0440400E-005
 -7.0070400E-003 -2.3731100E-002 -1.0572300E-005
 -6.8817300E-003 -2.2804300E-002 -1.0966100E-005
 -6.7567700E-003 -2.1877900E-002 -1.1624100E-005
 -6.6311100E-003 -2.0951200E-002 -1.2557400E-005
 -6.5052600E-003 -2.0025100E-002 -1.3777100E-005
 -6.3786700E-003 -1.9099200E-002 -1.5292600E-005
 -6.2515700E-003 -1.8174100E-002 -1.7112900E-005
 -6.1236100E-003 -1.7249900E-002 -1.9244300E-005
 -5.9949200E-003 -1.6327200E-002 -2.1691100E-005
 -5.8652600E-003 -1.5406300E-002 -2.4454800E-005
 -5.7347400E-003 -1.4487900E-002 -2.7534000E-005
 -5.6031700E-003 -1.3572400E-002 -3.0924700E-005
 -5.4706900E-003 -1.2660700E-002 -3.4619600E-005
 -5.3371700E-003 -1.1753300E-002 -3.8608900E-005
 -5.2027500E-003 -1.0851100E-002 -4.2879200E-005
 -5.0674000E-003 -9.9548800E-003 -4.7415000E-005
 -4.9312300E-003 -9.0655700E-003 -5.2197500E-005
 -4.7943200E-003 -8.1841500E-003 -5.7205400E-005
 -4.6567700E-003 -7.3114700E-003 -6.2415300E-005
 -4.5187200E-003 -6.4487100E-003 -6.7800500E-005
 -4.3802700E-003 -5.5967400E-003 -7.3333700E-005
 -4.2416400E-003 -4.7568100E-003 -7.8984100E-005
 -4.1029200E-003 -3.9298300E-003 -8.4720500E-005
 -3.9643600E-003 -3.1170500E-003 -9.0509700E-005
 -3.8260800E-003 -2.3194400E-003 -9.6317600E-005
 -3.6883100E-003 -1.5382100E-003 -1.0211000E-004
 -3.5512300E-003 -7.7442600E-004 -1.0785100E-004
 -3.4150200E-003 -2.9108100E-005 -1.1350500E-004
 -3.2799000E-003  6.9658200E-004 -1.1903800E-004
 -3.1460100E-003  1.4017600E-003 -1.2441500E-004
 -3.0135800E-003  2.0852700E-003 -1.2960300E-004
 -2.8827300E-003  2.7463200E-003 -1.3456900E-004
 -2.7536700E-003  3.3838600E-003 -1.3928200E-004
 -2.6264900E-003  3.9971400E-003 -1.4371300E-004
 -2.5013800E-003  4.5853000E-003 -1.4783600E-004
 -2.3784100E-003  5.1476000E-003 -1.5162500E-004
 -2.2577100E-003  5.6834000E-003 -1.5505700E-004
 -2.1393500E-003  6.1920000E-003 -1.5811400E-004
 -2.0234100E-003  6.6729600E-003 -1.6077700E-004
 -1.9099400E-003  7.1256600E-003 -1.6303200E-004
 -1.7989600E-003  7.5498500E-003 -1.6486600E-004
 -1.6905200E-003  7.9450300E-003 -1.6627100E-004
 -1.5845900E-003  8.3110800E-003 -1.6724000E-004
 -1.4812000E-003  8.6476800E-003 -1.6776800E-004
 -1.3802900E-003  8.9547900E-003 -1.6785300E-004
 -1.2818600E-003  9.2323300E-003 -1.6749700E-004
 -1.1858400E-003  9.4802900E-003 -1.6670200E-004
 -1.0922100E-003  9.6988500E-003 -1.6547300E-004
 -1.0009000E-003  9.8880200E-003 -1.6381600E-004
 -9.1185200E-004  1.0048200E-002 -1.6174100E-004
 -8.2502300E-004  1.0179500E-002 -1.5925600E-004
 -7.4031700E-004  1.0282400E-002 -1.5637400E-004
 -6.5772900E-004  1.0357300E-002 -1.5310700E-004
 -5.7713600E-004  1.0404600E-002 -1.4946900E-004
 -4.9856800E-004  1.0424900E-002 -1.4547400E-004
 -4.2189500E-004  1.0418700E-002 -1.4113900E-004
 -3.4717100E-004  1.0386900E-002 -1.3647900E-004
 -2.7427700E-004  1.0329700E-002 -1.3151000E-004
 -2.0328900E-004  1.0248500E-002 -1.2625200E-004
 -1.3411200E-004  1.0143500E-002 -1.2071900E-004
 -6.6835500E-005  1.0016000E-002 -1.1493200E-004
 -1.4037600E-006  9.8664200E-003 -1.0890600E-004
  6.2085600E-005  9.6962100E-003 -1.0266100E-004
  1.2364800E-004  9.5058600E-003 -9.6213000E-005
  1.8316600E-004  9.2967900E-003 -8.9581200E-005
  2.4063100E-004  9.0697200E-003 -8.2783000E-005
  2.9588400E-004  8.8259800E-003 -7.5835500E-005
  3.4892100E-004  8.5665200E-003 -6.8756900E-005
  3.9950900E-004  8.2926100E-003 -6.1563200E-005
  4.4768900E-004  8.0053400E-003 -5.4272900E-005
  4.9311500E-004  7.7060600E-003 -4.6901300E-005
  5.3591500E-004  7.3957900E-003 -3.9467200E-005
  5.7560100E-004  7.0761700E-003 -3.1985600E-005
  6.1241700E-004  6.7479400E-003 -2.4475500E-005
  6.4572100E-004  6.4132300E-003 -1.6952700E-005
  6.7588400E-004  6.0723300E-003 -9.4363900E-006
  7.0211800E-004  5.7279500E-003 -1.9450100E-006
  7.2492200E-004  5.3798600E-003  5.5008800E-006
  7.4337500E-004  5.0314200E-003  1.2879400E-005
  7.5809300E-004  4.6818000E-003  2.0166200E-005
  7.6805900E-004  4.3350300E-003  2.7333700E-005
  7.7398000E-004  3.9897300E-003  3.4350500E-005
  7.7477900E-004  3.6505300E-003  4.1180300E-005
  7.7123500E-004  3.3155100E-003  4.7778600E-005
  7.6224800E-004  2.9899500E-003  5.4095600E-005
  7.4863900E-004  2.6712600E-003  6.0065700E-005
  7.2935500E-004  2.3655700E-003  6.5617200E-005
  7.0516600E-004  2.0692900E-003  7.0651100E-005
  6.7523300E-004  1.7898900E-003  7.5060500E-005
  6.4004300E-004  1.5221200E-003  7.8694500E-005
  5.9933800E-004  1.2756200E-003  8.1390300E-005
  5.5280500E-004  1.0424000E-003  8.2915000E-005
  5.0154300E-004  8.3562800E-004  8.3018300E-005
  4.4332900E-004  6.4280700E-004  8.1333900E-005
  3.8223700E-004  4.8302800E-004  7.7474100E-005
  3.1175800E-004  3.3600300E-004  7.0838900E-005
  2.4280800E-004  2.3185100E-004  6.0836600E-005
  1.5979600E-004  1.3382700E-004  4.6435700E-005
  9.2962700E-005  9.5720100E-005  2.6939400E-005
  0.0000000E+000  0.0000000E+000  0.0000000E+000
  0.0000000E+000  0.0000000E+000  0.0000000E+000
  0.0000000E+000  0.0000000E+000  0.0000000E+000
  0.0000000E+000  0.0000000E+000  0.0000000E+000
  0.0000000E+000  0.0000000E+000  0.0000000E+000
  0.0000000E+000  0.0000000E+000  0.0000000E+000
  0.0000000E+000  0.0000000E+000  0.0000000E+000
  0.0000000E+000  0.0000000E+000  0.0000000E+000
  0.0000000E+000  0.0000000E+000  0.0000000E+000
  0.0000000E+000  0.0000000E+000  0.0000000E+000
  0.0000000E+000  0.0000000E+000  0.0000000E+000
  0.0000000E+000  0.0000000E+000  0.0000000E+000
  0.0000000E+000  0.0000000E+000  0.0000000E+000
  0.0000000E+000  0.0000000E+000  0.0000000E+000
  0.0000000E+000  0.0000000E+000  0.0000000E+000
  0.0000000E+000  0.0000000E+000  0.0000000E+000
 -1.0114500E-004  1.0160700E-004 -2.5610600E-005
 -1.6961100E-004  1.3620800E-004 -4.3802600E-005
 -2.5976000E-004  2.3207300E-004 -5.6912100E-005
 -3.3508400E-004  3.3078800E-004 -6.5568600E-005
 -4.1491000E-004  4.7362000E-004 -7.0820700E-005
 -4.8645700E-004  6.2652900E-004 -7.3266300E-005
 -5.5768900E-004  8.1411300E-004 -7.3527400E-005
 -6.2385000E-004  1.0132400E-003 -7.2010700E-005
 -6.8779200E-004  1.2407800E-003 -6.9102400E-005
 -7.4806500E-004  1.4795400E-003 -6.5073600E-005
 -8.0523300E-004  1.7416500E-003 -6.0173500E-005
 -8.5929600E-004  2.0138300E-003 -5.4583800E-005
 -9.0980200E-004  2.3048600E-003 -4.8469000E-005
 -9.5734800E-004  2.6043800E-003 -4.1951000E-005
 -1.0010700E-003  2.9185500E-003 -3.5140500E-005
 -1.0417500E-003  3.2393500E-003 -2.8119400E-005
 -1.0784200E-003  3.5708600E-003 -2.0963400E-005
 -1.1118500E-003  3.9069200E-003 -1.3727600E-005
 -1.1411200E-003  4.2499700E-003 -6.4649500E-006
 -1.1668900E-003  4.5952800E-003  7.8772300E-007
 -1.1883500E-003  4.9441200E-003  7.9925100E-006
 -1.2060400E-003  5.2927200E-003  1.5124600E-005
 -1.2193200E-003  5.6416300E-003  2.2157100E-005
 -1.2285500E-003  5.9876200E-003  2.9072500E-005
 -1.2332800E-003  6.3309400E-003  3.5851800E-005
 -1.2337300E-003  6.6685500E-003  4.2482000E-005
 -1.2296000E-003  7.0006600E-003  4.8950100E-005
 -1.2210400E-003  7.3242800E-003  5.5245900E-005
 -1.2078600E-003  7.6396300E-003  6.1360900E-005
 -1.1901800E-003  7.9438200E-003  6.7286400E-005
 -1.1678600E-003  8.2369900E-003  7.3016800E-005
 -1.1410800E-003  8.5164600E-003  7.8545000E-005
 -1.1097200E-003  8.7821900E-003  8.3867000E-005
 -1.0740200E-003  9.0318900E-003  8.8977100E-005
 -1.0338700E-003  9.2651300E-003  9.3871800E-005
 -9.8958500E-004  9.4801800E-003  9.8546900E-005
 -9.4110800E-004  9.6761700E-003  1.0299800E-004
 -8.8878600E-004  9.8519200E-003  1.0722300E-004
 -8.3263900E-004  1.0006200E-002  1.1121700E-004
 -7.7302000E-004  1.0138300E-002  1.1497700E-004
 -7.1006300E-004  1.0246800E-002  1.1849900E-004
 -6.4410000E-004  1.0331200E-002  1.2178000E-004
 -5.7539200E-004  1.0390100E-002  1.2481600E-004
 -5.0424900E-004  1.0423100E-002  1.2760200E-004
 -4.3104000E-004  1.0429300E-002  1.3013500E-004
 -3.5608200E-004  1.0407700E-002  1.3241000E-004
 -2.7980400E-004  1.0358100E-002  1.3442300E-004
 -2.0256900E-004  1.0279300E-002  1.3616900E-004
 -1.2481800E-004  1.0171500E-002  1.3764300E-004
 -4.6992300E-005  1.0033500E-002  1.3884000E-004
  3.0496300E-005  9.8656200E-003  1.3975600E-004
  1.0712000E-004  9.6668200E-003  1.4038400E-004
  1.8250500E-004  9.4375200E-003  1.4072100E-004
  2.5606800E-004  9.1770600E-003  1.4076200E-004
  3.2745000E-004  8.8857000E-003  1.4050400E-004
  3.9607100E-004  8.5633300E-003  1.3994400E-004
  4.6155000E-004  8.2099500E-003  1.3907700E-004
  5.2337300E-004  7.8260600E-003  1.3790500E-004
  5.8111200E-004  7.4114200E-003  1.3642400E-004
  6.3436500E-004  6.9670400E-003  1.3463800E-004
  6.8265400E-004  6.4926400E-003  1.3254700E-004
  7.2570000E-004  5.9894600E-003  1.3015800E-004
  7.6301800E-004  5.4574600E-003  1.2747500E-004
  7.9442100E-004  4.8978700E-003  1.2450700E-004
  8.1948800E-004  4.3110600E-003  1.2126300E-004
  8.3807300E-004  3.6980600E-003  1.1775700E-004
  8.4988800E-004  3.0597700E-003  1.1400300E-004
  8.5479500E-004  2.3969800E-003  1.1001600E-004
  8.5267100E-004  1.7110100E-003  1.0581700E-004
  8.4338200E-004  1.0025200E-003  1.0142600E-004
  8.2696900E-004  2.7306800E-004  9.6865200E-005
  8.0332700E-004 -4.7666600E-004  9.2159000E-005
  7.7262100E-004 -1.2451000E-003  8.7334100E-005
  7.3481700E-004 -2.0314000E-003  8.2416900E-005
  6.9015300E-004 -2.8341100E-003  7.7435700E-005
  6.3869900E-004 -3.6522500E-003  7.2419600E-005
  5.8073100E-004 -4.4844700E-003  6.7397400E-005
  5.1642700E-004 -5.3296600E-003  6.2398800E-005
  4.4608500E-004 -6.1867000E-003  5.7452600E-005
  3.6996800E-004 -7.0543700E-003  5.2587800E-005
  2.8839900E-004 -7.9317100E-003  4.7831900E-005
  2.0169700E-004 -8.8175200E-003  4.3211700E-005
  1.1020400E-004 -9.7109600E-003  3.8752500E-005
  1.4276800E-005 -1.0610900E-002  3.4477500E-005
 -8.5742200E-005 -1.1516600E-002  3.0408900E-005
 -1.8946700E-004 -1.2427000E-002  2.6565800E-005
 -2.9657900E-004 -1.3341700E-002  2.2965500E-005
 -4.0666400E-004 -1.4259400E-002  1.9622500E-005
 -5.1945700E-004 -1.5180200E-002  1.6548900E-005
 -6.3451400E-004 -1.6102700E-002  1.3753600E-005
 -7.5164400E-004 -1.7027300E-002  1.1243200E-005
 -8.7038600E-004 -1.7952600E-002  9.0207500E-006
 -9.9062100E-004 -1.8879200E-002  7.0873800E-006
 -1.1119100E-003 -1.9805600E-002  5.4400300E-006
 -1.2341700E-003 -2.0733100E-002  4.0756200E-006
 -1.3570600E-003 -2.1659700E-002  2.9852000E-006
 -1.4804300E-003 -2.2587400E-002  2.1630200E-006
 -1.6041800E-003 -2.3513400E-002  1.5950200E-006
 -1.7277800E-003 -2.4441500E-002  1.2708500E-006
 -2.0800200E-003 -2.4393100E-002  1.1360800E-006
 -1.9559700E-003 -2.3466600E-002  1.4523900E-006
 -1.8323300E-003 -2.2539300E-002  2.0074100E-006
 -1.7089200E-003 -2.1612500E-002  2.8091100E-006
 -1.5858400E-003 -2.0684900E-002  3.8712500E-006
 -1.4634800E-003 -1.9758000E-002  5.2004000E-006
 -1.3417700E-003 -1.8830900E-002  6.8044300E-006
 -1.2212100E-003 -1.7904600E-002  8.6870400E-006
 -1.1017600E-003 -1.6978800E-002  1.0850700E-005
 -9.8394800E-004 -1.6054500E-002  1.3294600E-005
 -8.6781400E-004 -1.5131500E-002  1.6015400E-005
 -7.5387900E-004 -1.4210900E-002  1.9007000E-005
 -6.4225000E-004 -1.3292800E-002  2.2260400E-005
 -5.3343600E-004 -1.2378300E-002  2.5763900E-005
 -4.2760900E-004 -1.1467800E-002  2.9503300E-005
 -3.2524400E-004 -1.0562200E-002  3.3461800E-005
 -2.2656800E-004 -9.6623000E-003  3.7620500E-005
 -1.3201100E-004 -8.7691300E-003  4.1958100E-005
 -4.1839100E-005 -7.8834700E-003  4.6451900E-005
  4.3567400E-005 -7.0064900E-003  5.1077100E-005
  1.2393600E-004 -6.1391300E-003  5.5807800E-005
  1.9893100E-004 -5.2825700E-003  6.0616900E-005
  2.6830600E-004 -4.4378800E-003  6.5476700E-005
  3.3177000E-004 -3.6062300E-003  7.0358800E-005
  3.8912800E-004 -2.7888000E-003  7.5234500E-005
  4.4014400E-004 -1.9867400E-003  8.0075800E-005
  4.8467600E-004 -1.2013500E-003  8.4854400E-005
  5.2257600E-004 -4.3365200E-004  8.9543100E-005
  5.5374900E-004  3.1498500E-004  9.4115700E-005
  5.7815900E-004  1.0436200E-003  9.8546900E-005
  5.9574400E-004  1.7509000E-003  1.0281300E-004
  6.0660600E-004  2.4359400E-003  1.0689300E-004
  6.1071200E-004  3.0975000E-003  1.1076600E-004
  6.0829200E-004  3.7347000E-003  1.1441300E-004
  5.9936700E-004  4.3465400E-003  1.1782000E-004
  5.8425800E-004  4.9320900E-003  1.2097100E-004
  5.6307700E-004  5.4906500E-003  1.2385600E-004
  5.3618300E-004  6.0212600E-003  1.2646400E-004
  5.0381400E-004  6.5235100E-003  1.2878800E-004
  4.6631900E-004  6.9964800E-003  1.3082100E-004
  4.2408000E-004  7.4400100E-003  1.3256000E-004
  3.7740400E-004  7.8533000E-003  1.3400300E-004
  3.2680600E-004  8.2363200E-003  1.3514800E-004
  2.7255900E-004  8.5885600E-003  1.3599700E-004
  2.1525400E-004  8.9099800E-003  1.3654900E-004
  1.5516700E-004  9.2004600E-003  1.3680900E-004
  9.2895100E-005  9.4599100E-003  1.3677900E-004
  2.8756600E-005  9.6885800E-003  1.3646200E-004
 -3.6706900E-005  9.8863600E-003  1.3586400E-004
 -1.0310600E-004  1.0053800E-002  1.3498800E-004
 -1.7000300E-004  1.0190900E-002  1.3383900E-004
 -2.3692800E-004  1.0298300E-002  1.3242200E-004
 -3.0355900E-004  1.0376300E-002  1.3074100E-004
 -3.6937300E-004  1.0425600E-002  1.2880200E-004
 -4.3414200E-004  1.0446500E-002  1.2660800E-004
 -4.9734200E-004  1.0440000E-002  1.2416400E-004
 -5.5879600E-004  1.0406600E-002  1.2147500E-004
 -6.1803300E-004  1.0347200E-002  1.1854300E-004
 -6.7488700E-004  1.0262600E-002  1.1537200E-004
 -7.2899000E-004  1.0153700E-002  1.1196700E-004
 -7.8015000E-004  1.0021400E-002  1.0833000E-004
 -8.2813400E-004  9.8667400E-003  1.0446600E-004
 -8.7271300E-004  9.6907200E-003  1.0037600E-004
 -9.1378100E-004  9.4944800E-003  9.6064500E-005
 -9.5110000E-004  9.2789900E-003  9.1534800E-005
 -9.8465300E-004  9.0456700E-003  8.6790300E-005
 -1.0142300E-003  8.7952800E-003  8.1834500E-005
 -1.0398600E-003  8.5296200E-003  7.6671400E-005
 -1.0614100E-003  8.2492200E-003  7.1305700E-005
 -1.0788900E-003  7.9562000E-003  6.5741800E-005
 -1.0922900E-003  7.6508900E-003  5.9985700E-005
 -1.1015800E-003  7.3356900E-003  5.4043600E-005
 -1.1068600E-003  7.0107800E-003  4.7923000E-005
 -1.1080600E-003  6.6787600E-003  4.1632700E-005
 -1.1053800E-003  6.3397100E-003  3.5182500E-005
 -1.0987200E-003  5.9964100E-003  2.8584300E-005
 -1.0883400E-003  5.6487900E-003  2.1852200E-005
 -1.0741700E-003  5.2999000E-003  1.5002700E-005
 -1.0564300E-003  4.9493600E-003  8.0552200E-006
 -1.0351400E-003  4.6006700E-003  1.0333200E-006
 -1.0104400E-003  4.2529400E-003 -6.0355300E-006
 -9.8247400E-004  3.9103500E-003 -1.3117800E-005
 -9.5121700E-004  3.5712100E-003 -2.0173800E-005
 -9.1702700E-004  3.2407100E-003 -2.7155400E-005
 -8.7960700E-004  2.9159500E-003 -3.4004900E-005
 -8.3962400E-004  2.6035600E-003 -4.0652300E-005
 -7.9635800E-004  2.2990100E-003 -4.7012600E-005
 -7.5099200E-004  2.0107900E-003 -5.2983000E-005
 -7.0205600E-004  1.7322500E-003 -5.8437600E-005
 -6.5170400E-004  1.4743400E-003 -6.3223400E-005
 -5.9704500E-004  1.2275200E-003 -6.7152600E-005
 -5.4213800E-004  1.0061200E-003 -6.9994800E-005
 -4.8132100E-004  7.9660300E-004 -7.1467300E-005
 -4.2246100E-004  6.1803800E-004 -7.1217800E-005
 -3.5438000E-004  4.5119700E-004 -6.8817300E-005
 -2.9272000E-004  3.2203700E-004 -6.3712200E-005
 -2.1528700E-004  2.0360100E-004 -5.5262000E-005
 -1.5419600E-004  1.2992000E-004 -4.2577800E-005
 -6.5791500E-005  6.6211100E-005 -2.4939700E-005
 -2.4316100E-003 -2.4345800E-002  7.3715800E-007
 -2.3080600E-003 -2.3418900E-002  1.0349200E-006
 -2.1840800E-003 -2.2491900E-002  1.5503300E-006
 -2.0606500E-003 -2.1564600E-002  2.2933600E-006
 -1.9374300E-003 -2.0637400E-002  3.2745100E-006
 -1.8147500E-003 -1.9710100E-002  4.5023900E-006
 -1.6927800E-003 -1.8783100E-002  5.9827900E-006
 -1.5716100E-003 -1.7856500E-002  7.7202200E-006
 -1.4516300E-003 -1.6930900E-002  9.7162000E-006
 -1.3328800E-003 -1.6006200E-002  1.1970200E-005
 -1.2158100E-003 -1.5083400E-002  1.4479000E-005
 -1.1005100E-003 -1.4162600E-002  1.7236800E-005
 -9.8745900E-004 -1.3244700E-002  2.0235000E-005
 -8.7676900E-004 -1.2330100E-002  2.3463000E-005
 -7.6892300E-004 -1.1419800E-002  2.6907400E-005
 -6.6408700E-004 -1.0514300E-002  3.0552500E-005
 -5.6271600E-004 -9.6146700E-003  3.4380800E-005
 -4.6501600E-004 -8.7216800E-003  3.8372800E-005
 -3.7140900E-004 -7.8364200E-003  4.2507000E-005
 -2.8211800E-004 -6.9597900E-003  4.6760900E-005
 -1.9752800E-004 -6.0929300E-003  5.1110400E-005
 -1.1785400E-004 -5.2369000E-003  5.5530600E-005
 -4.3442200E-005 -4.3928300E-003  5.9995900E-005
  2.5527400E-005 -3.5618800E-003  6.4480200E-005
  8.8753800E-005 -2.7451900E-003  6.8957400E-005
  1.4610500E-004 -1.9440200E-003  7.3401400E-005
  1.9734200E-004 -1.1594800E-003  7.7786800E-005
  2.4238400E-004 -3.9280400E-004  8.2088500E-005
  2.8108800E-004  3.5487500E-004  8.6282500E-005
  3.1340000E-004  1.0823700E-003  9.0346300E-005
  3.3931300E-004  1.7885900E-003  9.4258100E-005
  3.5877800E-004  2.4724200E-003  9.7998300E-005
  3.7194500E-004  3.1328100E-003  1.0154900E-004
  3.7877200E-004  3.7688000E-003  1.0489300E-004
  3.7954700E-004  4.3793800E-003  1.0801700E-004
  3.7427000E-004  4.9637400E-003  1.1090800E-004
  3.6331100E-004  5.5209900E-003  1.1355500E-004
  3.4676400E-004  6.0504600E-003  1.1595000E-004
  3.2501400E-004  6.5514000E-003  1.1808700E-004
  2.9829800E-004  7.0232900E-003  1.1995900E-004
  2.6695500E-004  7.4655500E-003  1.2156500E-004
  2.3138600E-004  7.8778100E-003  1.2290100E-004
  1.9185600E-004  8.2596900E-003  1.2396700E-004
  1.4891100E-004  8.6109300E-003  1.2476400E-004
  1.0276300E-004  8.9313700E-003  1.2529400E-004
  5.4029500E-005  9.2209000E-003  1.2555700E-004
  2.9234100E-006  9.4795400E-003  1.2555900E-004
 -4.9950800E-005  9.7073100E-003  1.2530100E-004
 -1.0432000E-004  9.9044400E-003  1.2478700E-004
 -1.5967400E-004  1.0071100E-002  1.2402200E-004
 -2.1563900E-004  1.0207700E-002  1.2301000E-004
 -2.7184200E-004  1.0314400E-002  1.2175500E-004
 -3.2781100E-004  1.0392000E-002  1.2026000E-004
 -3.8330400E-004  1.0440700E-002  1.1853000E-004
 -4.3780000E-004  1.0461300E-002  1.1656700E-004
 -4.9114000E-004  1.0454300E-002  1.1437700E-004
 -5.4282600E-004  1.0420700E-002  1.1196200E-004
 -5.9272000E-004  1.0360900E-002  1.0932400E-004
 -6.4042000E-004  1.0276100E-002  1.0646800E-004
 -6.8575000E-004  1.0166900E-002  1.0339600E-004
 -7.2846000E-004  1.0034400E-002  1.0011000E-004
 -7.6830500E-004  9.8795000E-003  9.6612300E-005
 -8.0520200E-004  9.7033400E-003  9.2906200E-005
 -8.3884600E-004  9.5068000E-003  8.8993700E-005
 -8.6929100E-004  9.2912400E-003  8.4877300E-005
 -8.9621700E-004  9.0575000E-003  8.0559700E-005
 -9.1975800E-004  8.8071200E-003  7.6043700E-005
 -9.3964100E-004  8.5409000E-003  7.1332500E-005
 -9.5601400E-004  8.2605600E-003  6.6429600E-005
 -9.6870000E-004  7.9668100E-003  6.1339300E-005
 -9.7781800E-004  7.6615900E-003  5.6066100E-005
 -9.8330500E-004  7.3454800E-003  5.0615800E-005
 -9.8524600E-004  7.0206600E-003  4.4994600E-005
 -9.8366300E-004  6.6875300E-003  3.9210600E-005
 -9.7864700E-004  6.3485600E-003  3.3272500E-005
 -9.7023400E-004  6.0039400E-003  2.7191200E-005
 -9.5859200E-004  5.6564200E-003  2.0979700E-005
 -9.4367600E-004  5.3059000E-003  1.4652900E-005