# vtk DataFile Version 3.0
MMH: CalculiX output 'object.frd' file to 'vtk' format
ASCII
DATASET UNSTRUCTURED_GRID
POINTS 3232 double
 6.00000000E-001 2.10000000E-001 0.00000000E+000
 6.00000000E-001 2.08667000E-001 0.00000000E+000
 6.00000000E-001 2.07333000E-001 0.00000000E+000
 6.00000000E-001 2.06000000E-001 0.00000000E+000
 6.00000000E-001 2.04667000E-001 0.00000000E+000
 6.00000000E-001 2.03333000E-001 0.00000000E+000
 6.00000000E-001 2.02000000E-001 0.00000000E+000
 6.00000000E-001 2.00667000E-001 0.00000000E+000
 6.00000000E-001 1.99333000E-001 0.00000000E+000
 6.00000000E-001 1.98000000E-001 0.00000000E+000
 6.00000000E-001 1.96667000E-001 0.00000000E+000
 6.00000000E-001 1.95333000E-001 0.00000000E+000
 6.00000000E-001 1.94000000E-001 0.00000000E+000
 6.00000000E-001 1.92667000E-001 0.00000000E+000
 6.00000000E-001 1.91333000E-001 0.00000000E+000
 6.00000000E-001 1.90000000E-001 0.00000000E+000
 5.96490000E-001 1.90000000E-001 0.00000000E+000
 5.92980000E-001 1.90000000E-001 0.00000000E+000
 5.89470000E-001 1.90000000E-001 0.00000000E+000
 5.85960000E-001 1.90000000E-001 0.00000000E+000
 5.82449000E-001 1.90000000E-001 0.00000000E+000
 5.78939000E-001 1.90000000E-001 0.00000000E+000
 5.75429000E-001 1.90000000E-001 0.00000000E+000
 5.71919000E-001 1.90000000E-001 0.00000000E+000
 5.68409000E-001 1.90000000E-001 0.00000000E+000
 5.64899000E-001 1.90000000E-001 0.00000000E+000
 5.61389000E-001 1.90000000E-001 0.00000000E+000
 5.57879000E-001 1.90000000E-001 0.00000000E+000
 5.54369000E-001 1.90000000E-001 0.00000000E+000
 5.50859000E-001 1.90000000E-001 0.00000000E+000
 5.47348000E-001 1.90000000E-001 0.00000000E+000
 5.43838000E-001 1.90000000E-001 0.00000000E+000
 5.40328000E-001 1.90000000E-001 0.00000000E+000
 5.36818000E-001 1.90000000E-001 0.00000000E+000
 5.33308000E-001 1.90000000E-001 0.00000000E+000
 5.29798000E-001 1.90000000E-001 0.00000000E+000
 5.26288000E-001 1.90000000E-001 0.00000000E+000
 5.22778000E-001 1.90000000E-001 0.00000000E+000
 5.19268000E-001 1.90000000E-001 0.00000000E+000
 5.15758000E-001 1.90000000E-001 0.00000000E+000
 5.12247000E-001 1.90000000E-001 0.00000000E+000
 5.08737000E-001 1.90000000E-001 0.00000000E+000
 5.05227000E-001 1.90000000E-001 0.00000000E+000
 5.01717000E-001 1.90000000E-001 0.00000000E+000
 4.98207000E-001 1.90000000E-001 0.00000000E+000
 4.94697000E-001 1.90000000E-001 0.00000000E+000
 4.91187000E-001 1.90000000E-001 0.00000000E+000
 4.87677000E-001 1.90000000E-001 0.00000000E+000
 4.84167000E-001 1.90000000E-001 0.00000000E+000
 4.80657000E-001 1.90000000E-001 0.00000000E+000
 4.77146000E-001 1.90000000E-001 0.00000000E+000
 4.73636000E-001 1.90000000E-001 0.00000000E+000
 4.70126000E-001 1.90000000E-001 0.00000000E+000
 4.66616000E-001 1.90000000E-001 0.00000000E+000
 4.63106000E-001 1.90000000E-001 0.00000000E+000
 4.59596000E-001 1.90000000E-001 0.00000000E+000
 4.56086000E-001 1.90000000E-001 0.00000000E+000
 4.52576000E-001 1.90000000E-001 0.00000000E+000
 4.49066000E-001 1.90000000E-001 0.00000000E+000
 4.45556000E-001 1.90000000E-001 0.00000000E+000
 4.42045000E-001 1.90000000E-001 0.00000000E+000
 4.38535000E-001 1.90000000E-001 0.00000000E+000
 4.35025000E-001 1.90000000E-001 0.00000000E+000
 4.31515000E-001 1.90000000E-001 0.00000000E+000
 4.28005000E-001 1.90000000E-001 0.00000000E+000
 4.24495000E-001 1.90000000E-001 0.00000000E+000
 4.20985000E-001 1.90000000E-001 0.00000000E+000
 4.17475000E-001 1.90000000E-001 0.00000000E+000
 4.13965000E-001 1.90000000E-001 0.00000000E+000
 4.10455000E-001 1.90000000E-001 0.00000000E+000
 4.06944000E-001 1.90000000E-001 0.00000000E+000
 4.03434000E-001 1.90000000E-001 0.00000000E+000
 3.99924000E-001 1.90000000E-001 0.00000000E+000
 3.96414000E-001 1.90000000E-001 0.00000000E+000
 3.92904000E-001 1.90000000E-001 0.00000000E+000
 3.89394000E-001 1.90000000E-001 0.00000000E+000
 3.85884000E-001 1.90000000E-001 0.00000000E+000
 3.82374000E-001 1.90000000E-001 0.00000000E+000
 3.78864000E-001 1.90000000E-001 0.00000000E+000
 3.75353000E-001 1.90000000E-001 0.00000000E+000
 3.71843000E-001 1.90000000E-001 0.00000000E+000
 3.68333000E-001 1.90000000E-001 0.00000000E+000
 3.64823000E-001 1.90000000E-001 0.00000000E+000
 3.61313000E-001 1.90000000E-001 0.00000000E+000
 3.57803000E-001 1.90000000E-001 0.00000000E+000
 3.54293000E-001 1.90000000E-001 0.00000000E+000
 3.50783000E-001 1.90000000E-001 0.00000000E+000
 3.47273000E-001 1.90000000E-001 0.00000000E+000
 3.43763000E-001 1.90000000E-001 0.00000000E+000
 3.40252000E-001 1.90000000E-001 0.00000000E+000
 3.36742000E-001 1.90000000E-001 0.00000000E+000
 3.33232000E-001 1.90000000E-001 0.00000000E+000
 3.29722000E-001 1.90000000E-001 0.00000000E+000
 3.26212000E-001 1.90000000E-001 0.00000000E+000
 3.22702000E-001 1.90000000E-001 0.00000000E+000
 3.19192000E-001 1.90000000E-001 0.00000000E+000
 3.15682000E-001 1.90000000E-001 0.00000000E+000
 3.12172000E-001 1.90000000E-001 0.00000000E+000
 3.08661000E-001 1.90000000E-001 0.00000000E+000
 3.05151000E-001 1.90000000E-001 0.00000000E+000
 3.01641000E-001 1.90000000E-001 0.00000000E+000
 2.98131000E-001 1.90000000E-001 0.00000000E+000
 2.94621000E-001 1.90000000E-001 0.00000000E+000
 2.91111000E-001 1.90000000E-001 0.00000000E+000
 2.87601000E-001 1.90000000E-001 0.00000000E+000
 2.84091000E-001 1.90000000E-001 0.00000000E+000
 2.80581000E-001 1.90000000E-001 0.00000000E+000
 2.77071000E-001 1.90000000E-001 0.00000000E+000
 2.73560000E-001 1.90000000E-001 0.00000000E+000
 2.70050000E-001 1.90000000E-001 0.00000000E+000
 2.66540000E-001 1.90000000E-001 0.00000000E+000
 2.63030000E-001 1.90000000E-001 0.00000000E+000
 2.59520000E-001 1.90000000E-001 0.00000000E+000
 2.56010000E-001 1.90000000E-001 0.00000000E+000
 2.52500000E-001 1.90000000E-001 0.00000000E+000
 2.48990000E-001 1.90000000E-001 0.00000000E+000
 2.48990000E-001 1.91333000E-001 0.00000000E+000
 2.48990000E-001 1.92667000E-001 0.00000000E+000
 2.48990000E-001 1.94000000E-001 0.00000000E+000
 2.48990000E-001 1.95333000E-001 0.00000000E+000
 2.48990000E-001 1.96667000E-001 0.00000000E+000
 2.48990000E-001 1.98000000E-001 0.00000000E+000
 2.48990000E-001 1.99333000E-001 0.00000000E+000
 2.48990000E-001 2.00667000E-001 0.00000000E+000
 2.48990000E-001 2.02000000E-001 0.00000000E+000
 2.48990000E-001 2.03333000E-001 0.00000000E+000
 2.48990000E-001 2.04667000E-001 0.00000000E+000
 2.48990000E-001 2.06000000E-001 0.00000000E+000
 2.48990000E-001 2.07333000E-001 0.00000000E+000
 2.48990000E-001 2.08667000E-001 0.00000000E+000
 2.48990000E-001 2.10000000E-001 0.00000000E+000
 2.52500000E-001 2.10000000E-001 0.00000000E+000
 2.56010000E-001 2.10000000E-001 0.00000000E+000
 2.59520000E-001 2.10000000E-001 0.00000000E+000
 2.63030000E-001 2.10000000E-001 0.00000000E+000
 2.66540000E-001 2.10000000E-001 0.00000000E+000
 2.70050000E-001 2.10000000E-001 0.00000000E+000
 2.73560000E-001 2.10000000E-001 0.00000000E+000
 2.77071000E-001 2.10000000E-001 0.00000000E+000
 2.80581000E-001 2.10000000E-001 0.00000000E+000
 2.84091000E-001 2.10000000E-001 0.00000000E+000
 2.87601000E-001 2.10000000E-001 0.00000000E+000
 2.91111000E-001 2.10000000E-001 0.00000000E+000
 2.94621000E-001 2.10000000E-001 0.00000000E+000
 2.98131000E-001 2.10000000E-001 0.00000000E+000
 3.01641000E-001 2.10000000E-001 0.00000000E+000
 3.05151000E-001 2.10000000E-001 0.00000000E+000
 3.08661000E-001 2.10000000E-001 0.00000000E+000
 3.12172000E-001 2.10000000E-001 0.00000000E+000
 3.15682000E-001 2.10000000E-001 0.00000000E+000
 3.19192000E-001 2.10000000E-001 0.00000000E+000
 3.22702000E-001 2.10000000E-001 0.00000000E+000
 3.26212000E-001 2.10000000E-001 0.00000000E+000
 3.29722000E-001 2.10000000E-001 0.00000000E+000
 3.33232000E-001 2.10000000E-001 0.00000000E+000
 3.36742000E-001 2.10000000E-001 0.00000000E+000
 3.40252000E-001 2.10000000E-001 0.00000000E+000
 3.43763000E-001 2.10000000E-001 0.00000000E+000
 3.47273000E-001 2.10000000E-001 0.00000000E+000
 3.50783000E-001 2.10000000E-001 0.00000000E+000
 3.54293000E-001 2.10000000E-001 0.00000000E+000
 3.57803000E-001 2.10000000E-001 0.00000000E+000
 3.61313000E-001 2.10000000E-001 0.00000000E+000
 3.64823000E-001 2.10000000E-001 0.00000000E+000
 3.68333000E-001 2.10000000E-001 0.00000000E+000
 3.71843000E-001 2.10000000E-001 0.00000000E+000
 3.75353000E-001 2.10000000E-001 0.00000000E+000
 3.78864000E-001 2.10000000E-001 0.00000000E+000
 3.82374000E-001 2.10000000E-001 0.00000000E+000
 3.85884000E-001 2.10000000E-001 0.00000000E+000
 3.89394000E-001 2.10000000E-001 0.00000000E+000
 3.92904000E-001 2.10000000E-001 0.00000000E+000
 3.96414000E-001 2.10000000E-001 0.00000000E+000
 3.99924000E-001 2.10000000E-001 0.00000000E+000
 4.03434000E-001 2.10000000E-001 0.00000000E+000
 4.06944000E-001 2.10000000E-001 0.00000000E+000
 4.10455000E-001 2.10000000E-001 0.00000000E+000
 4.13965000E-001 2.10000000E-001 0.00000000E+000
 4.17475000E-001 2.10000000E-001 0.00000000E+000
 4.20985000E-001 2.10000000E-001 0.00000000E+000
 4.24495000E-001 2.10000000E-001 0.00000000E+000
 4.28005000E-001 2.10000000E-001 0.00000000E+000
 4.31515000E-001 2.10000000E-001 0.00000000E+000
 4.35025000E-001 2.10000000E-001 0.00000000E+000
 4.38535000E-001 2.10000000E-001 0.00000000E+000
 4.42045000E-001 2.10000000E-001 0.00000000E+000
 4.45556000E-001 2.10000000E-001 0.00000000E+000
 4.49066000E-001 2.10000000E-001 0.00000000E+000
 4.52576000E-001 2.10000000E-001 0.00000000E+000
 4.56086000E-001 2.10000000E-001 0.00000000E+000
 4.59596000E-001 2.10000000E-001 0.00000000E+000
 4.63106000E-001 2.10000000E-001 0.00000000E+000
 4.66616000E-001 2.10000000E-001 0.00000000E+000
 4.70126000E-001 2.10000000E-001 0.00000000E+000
 4.73636000E-001 2.10000000E-001 0.00000000E+000
 4.77146000E-001 2.10000000E-001 0.00000000E+000
 4.80657000E-001 2.10000000E-001 0.00000000E+000
 4.84167000E-001 2.10000000E-001 0.00000000E+000
 4.87677000E-001 2.10000000E-001 0.00000000E+000
 4.91187000E-001 2.10000000E-001 0.00000000E+000
 4.94697000E-001 2.10000000E-001 0.00000000E+000
[...]
POINT_DATA 3232
VECTORS DISP double
 -7.5696200E-003  2.8724800E-002 -1.3852400E-005
 -7.2051600E-003  2.8775700E-002 -1.3733700E-005
 -6.8398400E-003  2.8826600E-002 -1.3377100E-005
 -6.4750200E-003  2.8877400E-002 -1.2800700E-005
 -6.1099700E-003  2.8928300E-002 -1.2034700E-005
 -5.7450700E-003  2.8979100E-002 -1.1111700E-005
 -5.3801100E-003  2.9030000E-002 -1.0072000E-005
 -5.0152400E-003  2.9080900E-002 -8.9588900E-006
 -4.6502700E-003  2.9131900E-002 -7.8193200E-006
 -4.2854000E-003  2.9182900E-002 -6.7003500E-006
 -3.9204100E-003  2.9233900E-002 -5.6491900E-006
 -3.5555200E-003  2.9284900E-002 -4.7092300E-006
 -3.1903700E-003  2.9336000E-002 -3.9224800E-006
 -2.8255800E-003  2.9386900E-002 -3.3213800E-006
 -2.4599200E-003  2.9438300E-002 -2.9430400E-006
 -2.0956300E-003  2.9488400E-002 -2.8162700E-006
 -1.9617600E-003  2.8528900E-002 -2.7234300E-006
 -1.8285200E-003  2.7566800E-002 -2.4195900E-006
 -1.6951500E-003  2.6606500E-002 -1.8890100E-006
 -1.5621200E-003  2.5644700E-002 -1.1214700E-006
 -1.4295500E-003  2.4684000E-002 -1.0343400E-007
 -1.2975600E-003  2.3722400E-002  1.1714500E-006
 -1.1664700E-003  2.2761800E-002  2.7123900E-006
 -1.0363600E-003  2.1801000E-002  4.5234200E-006
 -9.0766100E-004  2.0841400E-002  6.6085400E-006
 -7.8047900E-004  1.9882500E-002  8.9679400E-006
 -6.5525700E-004  1.8925400E-002  1.1599900E-005
 -5.3218100E-004  1.7970000E-002  1.4499800E-005
 -4.1168000E-004  1.7017300E-002  1.7660400E-005
 -2.9401500E-004  1.6067400E-002  2.1071800E-005
 -1.7959000E-004  1.5121600E-002  2.4721600E-005
 -6.8722400E-005  1.4180000E-002  2.8594800E-005
  3.8210800E-005  1.3243900E-002  3.2674600E-005
  1.4086100E-004  1.2313900E-002  3.6941400E-005
  2.3887600E-004  1.1390900E-002  4.1374500E-005
  3.3190500E-004  1.0475900E-002  4.5950600E-005
  4.1962400E-004  9.5699400E-003  5.0645700E-005
  5.0169700E-004  8.6740000E-003  5.5434300E-005
  5.7785000E-004  7.7892000E-003  6.0289600E-005
  6.4776700E-004  6.9166400E-003  6.5184800E-005
  7.1124800E-004  6.0574100E-003  7.0092000E-005
  7.6799900E-004  5.2127800E-003  7.4983900E-005
  8.1791400E-004  4.3837300E-003  7.9832700E-005
  8.6073700E-004  3.5716700E-003  8.4611200E-005
  8.9645700E-004  2.7774400E-003  8.9293500E-005
  9.2488700E-004  2.0025700E-003  9.3853200E-005
  9.4608500E-004  1.2477600E-003  9.8267300E-005
  9.5997900E-004  5.1453200E-004  1.0251200E-004
  9.6665900E-004 -1.9641100E-004  1.0656600E-004
  9.6621000E-004 -8.8378000E-004  1.1041000E-004
  9.5872800E-004 -1.5467300E-003  1.1402700E-004
  9.4446000E-004 -2.1843700E-003  1.1740100E-004
  9.2351500E-004 -2.7956400E-003  1.2051800E-004
  8.9627400E-004 -3.3801100E-003  1.2336700E-004
  8.6288700E-004 -3.9365200E-003  1.2593700E-004
  8.2380700E-004 -4.4648800E-003  1.2822300E-004
  7.7927700E-004 -4.9639000E-003  1.3021500E-004
  7.2975100E-004 -5.4337900E-003  1.3191300E-004
  6.7559800E-004 -5.8735000E-003  1.3331200E-004
  6.1723000E-004 -6.2832000E-003  1.3441300E-004
  5.5513600E-004 -6.6623400E-003  1.3521400E-004
  4.8968500E-004 -7.0108500E-003  1.3571700E-004
  4.2144200E-004 -7.3287800E-003  1.3592400E-004
  3.5075500E-004 -7.6158100E-003  1.3583900E-004
  2.7820600E-004 -7.8725400E-003  1.3546500E-004
  2.0415900E-004 -8.0984900E-003  1.3480600E-004
  1.2915100E-004 -8.2946300E-003  1.3386700E-004
  5.3588800E-005 -8.4605600E-003  1.3265000E-004
 -2.2071900E-005 -8.5973500E-003  1.3116400E-004
 -9.7388500E-005 -8.7049200E-003  1.2941000E-004
 -1.7198100E-004 -8.7842000E-003  1.2739500E-004
 -2.4540900E-004 -8.8356000E-003  1.2512400E-004
 -3.1734000E-004 -8.8598000E-003  1.2259900E-004
 -3.8738200E-004 -8.8576900E-003  1.1982700E-004
 -4.5521600E-004 -8.8297700E-003  1.1681100E-004
 -5.2054500E-004 -8.7772700E-003  1.1355600E-004
 -5.8303000E-004 -8.7006500E-003  1.1006400E-004
 -6.4249800E-004 -8.6012700E-003  1.0634200E-004
 -6.9858300E-004 -8.4798000E-003  1.0239200E-004
 -7.5122900E-004 -8.3374500E-003  9.8218200E-005
 -8.0007000E-004 -8.1753200E-003  9.3824600E-005
 -8.4513100E-004 -7.9942500E-003  8.9215500E-005
 -8.8608000E-004 -7.7959100E-003  8.4395200E-005
 -9.2299000E-004 -7.5807300E-003  7.9367800E-005
 -9.5558900E-004 -7.3508800E-003  7.4139000E-005
 -9.8397300E-004 -7.1064500E-003  6.8713100E-005
 -1.0079400E-003 -6.8500100E-003  6.3097500E-005
 -1.0276000E-003 -6.5814400E-003  5.7297500E-005
 -1.0428100E-003 -6.3035000E-003  5.1322100E-005
 -1.0537300E-003 -6.0160500E-003  4.5179500E-005
 -1.0601900E-003 -5.7219100E-003  3.8879800E-005
 -1.0624600E-003 -5.4209800E-003  3.2435600E-005
 -1.0603000E-003 -5.1161200E-003  2.5859600E-005
 -1.0541400E-003 -4.8071700E-003  1.9169600E-005
 -1.0436100E-003 -4.4971900E-003  1.2382500E-005
 -1.0292900E-003 -4.1857500E-003  5.5237400E-006
 -1.0107000E-003 -3.8763700E-003 -1.3833600E-006
 -9.8856700E-004 -3.5680000E-003 -8.3031700E-006
 -9.6225700E-004 -3.2650300E-003 -1.5201300E-005
 -9.3265200E-004 -2.9653400E-003 -2.2028400E-005
 -8.9900400E-004 -2.6746200E-003 -2.8733200E-005
 -8.6224500E-004 -2.3892300E-003 -3.5245600E-005
 -8.2162300E-004 -2.1166100E-003 -4.1489400E-005
 -7.7796700E-004 -1.8511600E-003 -4.7362700E-005
 -7.3071000E-004 -1.6024900E-003 -5.2752500E-005
 -6.8029900E-004 -1.3625800E-003 -5.7507300E-005
 -6.2672500E-004 -1.1437300E-003 -6.1459500E-005
 -5.6949500E-004 -9.3484400E-004 -6.4379500E-005
 -5.0995000E-004 -7.5180300E-004 -6.6017500E-005
 -4.4548400E-004 -5.7913600E-004 -6.6018000E-005
 -3.8049400E-004 -4.3820300E-004 -6.4007100E-005
 -3.0766800E-004 -3.0639500E-004 -5.9411900E-005
 -2.3879800E-004 -2.1513700E-004 -5.1683100E-005
 -1.5612100E-004 -1.2638800E-004 -3.9855100E-005
 -9.3195500E-005 -9.4084800E-005 -2.3347900E-005
  0.0000000E+000  0.0000000E+000  0.0000000E+000
  0.0000000E+000  0.0000000E+000  0.0000000E+000
  0.0000000E+000  0.0000000E+000  0.0000000E+000
  0.0000000E+000  0.0000000E+000  0.0000000E+000
  0.0000000E+000  0.0000000E+000  0.0000000E+000
  0.0000000E+000  0.0000000E+000  0.0000000E+000
  0.0000000E+000  0.0000000E+000  0.0000000E+000
  0.0000000E+000  0.0000000E+000  0.0000000E+000
  0.0000000E+000  0.0000000E+000  0.0000000E+000
  0.0000000E+000  0.0000000E+000  0.0000000E+000
  0.0000000E+000  0.0000000E+000  0.0000000E+000
  0.0000000E+000  0.0000000E+000  0.0000000E+000
  0.0000000E+000  0.0000000E+000  0.0000000E+000
  0.0000000E+000  0.0000000E+000  0.0000000E+000
  0.0000000E+000  0.0000000E+000  0.0000000E+000
  0.0000000E+000  0.0000000E+000  0.0000000E+000
  8.5761400E-005 -8.8211700E-005  2.4595200E-005
  1.4722100E-004 -1.2346400E-004  4.2319400E-005
  2.2354300E-004 -2.1385700E-004  5.5331100E-005
  2.8680000E-004 -3.0976800E-004  6.4271500E-005
  3.5140300E-004 -4.4502000E-004  7.0090400E-005
  4.0729100E-004 -5.9178200E-004  7.3332900E-005
  4.6047000E-004 -7.6873000E-004  7.4552300E-005
  5.0719500E-004 -9.5819700E-004  7.4106000E-005
  5.4951100E-004 -1.1716700E-003  7.2332500E-005
  5.8641300E-004 -1.3969500E-003  6.9463200E-005
  6.1818500E-004 -1.6413400E-003  6.5713700E-005
  6.4506600E-004 -1.8959100E-003  6.1234900E-005
  6.6660800E-004 -2.1654300E-003  5.6167300E-005
  6.8357400E-004 -2.4429500E-003  5.0610600E-005
  6.9526400E-004 -2.7317400E-003  4.4657300E-005
  7.0263100E-004 -3.0260500E-003  3.8375000E-005
  7.0492700E-004 -3.3282400E-003  3.1825500E-005
  7.0315000E-004 -3.6333200E-003  2.5056100E-005
  6.9658600E-004 -3.9430700E-003  1.8109600E-005
  6.8621200E-004 -4.2530700E-003  1.1020600E-005
  6.7137800E-004 -4.5646100E-003  3.8197200E-006
  6.5300500E-004 -4.8738400E-003 -3.4659400E-006
  6.3052600E-004 -5.1815100E-003 -1.0812500E-005
  6.0477500E-004 -5.4844000E-003 -1.8198300E-005
  5.7528300E-004 -5.7827000E-003 -2.5602600E-005
  5.4276700E-004 -6.0738400E-003 -3.3007000E-005
  5.0687200E-004 -6.3574700E-003 -4.0392200E-005
  4.6818000E-004 -6.6316000E-003 -4.7742000E-005
  4.2645100E-004 -6.8954400E-003 -5.5037600E-005
  3.8212200E-004 -7.1474700E-003 -6.2263300E-005
  3.3506200E-004 -7.3866500E-003 -6.9400500E-005
  2.8557300E-004 -7.6117100E-003 -7.6433500E-005
  2.3360400E-004 -7.8215800E-003 -8.3343900E-005
  1.7935100E-004 -8.0150400E-003 -9.0115200E-005
  1.2280400E-004 -8.1911700E-003 -9.6729500E-005
  6.4089700E-005 -8.3487000E-003 -1.0316900E-004
  3.2039200E-006 -8.4869300E-003 -1.0941700E-004
 -5.9769900E-005 -8.6045000E-003 -1.1545500E-004
 -1.2485500E-004 -8.7009400E-003 -1.2126600E-004
 -1.9198700E-004 -8.7748600E-003 -1.2683100E-004
 -2.6122600E-004 -8.8259300E-003 -1.3213400E-004
 -3.3251400E-004 -8.8528600E-003 -1.3715600E-004
 -4.0594800E-004 -8.8553500E-003 -1.4188200E-004
 -4.8147800E-004 -8.8323200E-003 -1.4629300E-004
 -5.5922700E-004 -8.7834000E-003 -1.5037400E-004
 -6.3915800E-004 -8.7078100E-003 -1.5410900E-004
 -7.2140400E-004 -8.6051100E-003 -1.5748400E-004
 -8.0594800E-004 -8.4747900E-003 -1.6048500E-004
 -8.9291600E-004 -8.3163800E-003 -1.6309900E-004
 -9.8231400E-004 -8.1296200E-003 -1.6531300E-004
 -1.0742500E-003 -7.9140500E-003 -1.6711900E-004
 -1.1687400E-003 -7.6696100E-003 -1.6850700E-004
 -1.2658800E-003 -7.3959700E-003 -1.6947000E-004
 -1.3656900E-003 -7.0931400E-003 -1.7000200E-004
 -1.4682200E-003 -6.7610000E-003 -1.7010100E-004
 -1.5735300E-003 -6.3996200E-003 -1.6976500E-004
 -1.6815900E-003 -6.0091100E-003 -1.6899500E-004
 -1.7924700E-003 -5.5895800E-003 -1.6779400E-004
 -1.9061200E-003 -5.1413800E-003 -1.6616900E-004
 -2.0225500E-003 -4.6646800E-003 -1.6412800E-004
 -2.1417200E-003 -4.1600200E-003 -1.6168100E-004
 -2.2635800E-003 -3.6276900E-003 -1.5884200E-004
 -2.3880600E-003 -3.0683600E-003 -1.5562800E-004
 -2.5150900E-003 -2.4824900E-003 -1.5205700E-004
 -2.6445700E-003 -1.8708100E-003 -1.4815000E-004
 -2.7763700E-003 -1.2339900E-003 -1.4393100E-004
 -2.9103900E-003 -5.7279400E-004 -1.3942400E-004
 -3.0464500E-003  1.1190900E-004 -1.3465800E-004
 -3.1844300E-003  8.1933600E-004 -1.2966100E-004
 -3.3241300E-003  1.5484600E-003 -1.2446600E-004
 -3.4653900E-003  2.2984400E-003 -1.1910200E-004
 -3.6080200E-003  3.0681800E-003 -1.1360500E-004
 -3.7518300E-003  3.8567500E-003 -1.0800600E-004
 -3.8966200E-003  4.6630400E-003 -1.0234100E-004
 -4.0421900E-003  5.4860200E-003 -9.6642300E-005
 -4.1883800E-003  6.3246600E-003 -9.0944900E-005
 -4.3349400E-003  7.1777700E-003 -8.5281200E-005
 -4.4817400E-003  8.0444000E-003 -7.9683600E-005
 -4.6285500E-003  8.9233600E-003 -7.4183300E-005
 -4.7752600E-003  9.8137500E-003 -6.8809600E-005
 -4.9216600E-003  1.0714400E-002 -6.3591100E-005
 -5.0676600E-003  1.1624400E-002 -5.8553200E-005
 -5.2131000E-003  1.2542600E-002 -5.3720400E-005
 -5.3578900E-003  1.3468400E-002 -4.9114000E-005
 -5.5019500E-003  1.4400600E-002 -4.4753600E-005
 -5.6451700E-003  1.5338400E-002 -4.0655700E-005
 -5.7875600E-003  1.6281200E-002 -3.6834400E-005
 -5.9290200E-003  1.7228000E-002 -3.3301100E-005
 -6.0696300E-003  1.8178300E-002 -3.0064100E-005
 -6.2092800E-003  1.9131400E-002 -2.7129500E-005
 -6.3481400E-003  2.0086800E-002 -2.4499800E-005
 -6.4861000E-003  2.1043800E-002 -2.2175500E-005
 -6.6233800E-003  2.2002300E-002 -2.0153900E-005
 -6.7598700E-003  2.2961600E-002 -1.8430100E-005
 -6.8958900E-003  2.3921700E-002 -1.6997100E-005
 -7.0312200E-003  2.4882000E-002 -1.5845600E-005
 -7.1663800E-003  2.5842700E-002 -1.4965800E-005
 -7.3008800E-003  2.6803300E-002 -1.4346700E-005
 -7.4357100E-003  2.7764200E-002 -1.3976500E-005
 -7.0703900E-003  2.7815000E-002 -1.3853500E-005
 -6.9361000E-003  2.6854200E-002 -1.4214600E-005
 -6.8012400E-003  2.5893400E-002 -1.4820300E-005
 -6.6663200E-003  2.4932700E-002 -1.5679900E-005
 -6.5308700E-003  2.3972100E-002 -1.6804700E-005
 -6.3950800E-003  2.3011900E-002 -1.8204200E-005
 -6.2586700E-003  2.2052300E-002 -1.9887500E-005
 -6.1217500E-003  2.1093600E-002 -2.1861300E-005
 -5.9841400E-003  2.0136000E-002 -2.4130500E-005
 -5.8459000E-003  1.9180200E-002 -2.6697500E-005
 -5.7069300E-003  1.8226500E-002 -2.9562200E-005
 -5.5672900E-003  1.7275600E-002 -3.2721900E-005
 -5.4269600E-003  1.6327900E-002 -3.6170800E-005
 -5.2859800E-003  1.5384300E-002 -3.9900800E-005
 -5.1444200E-003  1.4445400E-002 -4.3900900E-005
 -5.0023200E-003  1.3512100E-002 -4.8157400E-005
 -4.8598200E-003  1.2585200E-002 -5.2654000E-005
 -4.7169700E-003  1.1665500E-002 -5.7372000E-005
 -4.5739500E-003  1.0754100E-002 -6.2290300E-005
 -4.4308600E-003  9.8518600E-003 -6.7385300E-005
 -4.2878900E-003  8.9598500E-003 -7.2631900E-005
 -4.1451800E-003  8.0790400E-003 -7.8002500E-005
 -4.0029200E-003  7.2105600E-003 -8.3468500E-005
 -3.8613000E-003  6.3554200E-003 -8.8999200E-005
 -3.7204900E-003  5.5147200E-003 -9.4563300E-005
 -3.5807200E-003  4.6895800E-003 -1.0012900E-004
 -3.4421600E-003  3.8810500E-003 -1.0566200E-004
 -3.3050200E-003  3.0902200E-003 -1.1113000E-004
 -3.1694800E-003  2.3181200E-003 -1.1650100E-004
 -3.0357400E-003  1.5658200E-003 -1.2174000E-004
 -2.9039500E-003  8.3427300E-004 -1.2681500E-004
 -2.7743100E-003  1.2450500E-004 -1.3169600E-004
 -2.6469500E-003 -5.6260600E-004 -1.3635200E-004
 -2.5220100E-003 -1.2261300E-003 -1.4075500E-004
 -2.3996300E-003 -1.8652700E-003 -1.4487700E-004
 -2.2799000E-003 -2.4792200E-003 -1.4869400E-004
 -2.1629400E-003 -3.0672600E-003 -1.5218200E-004
 -2.0487800E-003 -3.6287500E-003 -1.5532100E-004
 -1.9375100E-003 -4.1630600E-003 -1.5809200E-004
 -1.8291500E-003 -4.6697100E-003 -1.6048000E-004
 -1.7237300E-003 -5.1481700E-003 -1.6247200E-004
 -1.6212500E-003 -5.5981200E-003 -1.6405600E-004
 -1.5216900E-003 -6.0191800E-003 -1.6522400E-004
 -1.4250300E-003 -6.4111400E-003 -1.6597100E-004
 -1.3312200E-003 -6.7738100E-003 -1.6629300E-004
 -1.2402200E-003 -7.1070900E-003 -1.6619000E-004
 -1.1519300E-003 -7.4109600E-003 -1.6566200E-004
 -1.0663300E-003 -7.6854200E-003 -1.6471200E-004
 -9.8328800E-004 -7.9306200E-003 -1.6334600E-004
 -9.0275800E-004 -8.1466900E-003 -1.6157100E-004
 -8.2463100E-004 -8.3339100E-003 -1.5939500E-004
 -7.4882200E-004 -8.4925600E-003 -1.5682900E-004
 -6.7525300E-004 -8.6230300E-003 -1.5388400E-004
 -6.0381300E-004 -8.7257400E-003 -1.5057200E-004
 -5.3445400E-004 -8.8011500E-003 -1.4690800E-004
 -4.6706100E-004 -8.8499000E-003 -1.4290500E-004
 -4.0160200E-004 -8.8724400E-003 -1.3857900E-004
 -3.3798400E-004 -8.8696300E-003 -1.3394700E-004
 -2.7617400E-004 -8.8419400E-003 -1.2902400E-004
 -2.1613100E-004 -8.7903900E-003 -1.2382700E-004
 -1.5780200E-004 -8.7155000E-003 -1.1837400E-004
 -1.0121900E-004 -8.6184300E-003 -1.1268100E-004
 -4.6301400E-005 -8.4997700E-003 -1.0676700E-004
  6.8439600E-006 -8.3607400E-003 -1.0064800E-004
  5.8312400E-005 -8.2020600E-003 -9.4342600E-005
  1.0793900E-004 -8.0249800E-003 -8.7867600E-005
  1.5581200E-004 -7.8303400E-003 -8.1240500E-005
  2.0173300E-004 -7.6194300E-003 -7.4478400E-005
  2.4576000E-004 -7.3931700E-003 -6.7598400E-005
  2.8768400E-004 -7.1529400E-003 -6.0617600E-005
  3.2751700E-004 -6.8996300E-003 -5.3552500E-005
  3.6505200E-004 -6.6348300E-003 -4.6420200E-005
  4.0026000E-004 -6.3593100E-003 -3.9237400E-005
  4.3292800E-004 -6.0749200E-003 -3.2021500E-005
  4.6301000E-004 -5.7822200E-003 -2.4789400E-005
  4.9026000E-004 -5.4834400E-003 -1.7559100E-005
  5.1466100E-004 -5.1787800E-003 -1.0349400E-005
  5.3590200E-004 -4.8709700E-003 -3.1800900E-006
  5.5402800E-004 -4.5597700E-003  3.9273600E-006
  5.6865000E-004 -4.2484400E-003  1.0949700E-005
  5.7988800E-004 -3.9362700E-003  1.7860400E-005
  5.8729400E-004 -3.6270800E-003  2.4629900E-005
  5.9103600E-004 -3.3196300E-003  3.1223300E-005
  5.9067900E-004 -3.0183800E-003  3.7600600E-005
  5.8633900E-004 -2.7214300E-003  4.3713300E-005
  5.7775400E-004 -2.4340800E-003  4.9504100E-005
  5.6479500E-004 -2.1534400E-003  5.4902900E-005
  5.4764400E-004 -1.8860800E-003  5.9824800E-005
  5.2559000E-004 -1.6276200E-003  6.4165600E-005
  4.9972000E-004 -1.3864600E-003  6.7796800E-005
  4.6814300E-004 -1.1560000E-003  7.0560500E-005
  4.3367700E-004 -9.4743100E-004  7.2259700E-005
  3.9215100E-004 -7.5070600E-004  7.2651900E-005
  3.4964000E-004 -5.8125200E-004  7.1430100E-005
  2.9756500E-004 -4.2387600E-004  6.8217600E-005
  2.4831000E-004 -3.0031300E-004  6.2522200E-005
  1.8468000E-004 -1.8824700E-004  5.3765900E-005
  1.3209600E-004 -1.1711700E-004  4.1138700E-005
  5.6705300E-005 -5.6603700E-005  2.3936600E-005
 -6.7056300E-003  2.7865800E-002 -1.3489100E-005
 -6.5709700E-003  2.6905000E-002 -1.3826200E-005
 -6.4364100E-003  2.5944100E-002 -1.4391900E-005
 -6.3013600E-003  2.4983300E-002 -1.5193800E-005
 -6.1661300E-003  2.4022600E-002 -1.6242100E-005
 -6.0304000E-003  2.3062200E-002 -1.7545800E-005
 -5.8943100E-003  2.2102300E-002 -1.9113000E-005
 -5.7576900E-003  2.1143200E-002 -2.0950200E-005
 -5.6205900E-003  2.0185300E-002 -2.3061900E-005
 -5.4829600E-003  1.9229000E-002 -2.5450400E-005
 -5.3448100E-003  1.8274800E-002 -2.8115600E-005
 -5.2061700E-003  1.7323200E-002 -3.1054900E-005
 -5.0670500E-003  1.6374800E-002 -3.4263400E-005
 -4.9275600E-003  1.5430400E-002 -3.7733500E-005
 -4.7877200E-003  1.4490600E-002 -4.1455100E-005
 -4.6476800E-003  1.3556200E-002 -4.5415600E-005
 -4.5074900E-003  1.2628100E-002 -4.9599900E-005
 -4.3673400E-003  1.1707200E-002 -5.3990900E-005
 -4.2273300E-003  1.0794400E-002 -5.8568800E-005
 -4.0876400E-003  9.8906900E-003 -6.3312200E-005
 -3.9484200E-003  8.9970700E-003 -6.8197200E-005
 -3.8098700E-003  8.1145800E-003 -7.3198800E-005
 -3.6721800E-003  7.2442900E-003 -7.8289900E-005
 -3.5355300E-003  6.3872800E-003 -8.3442400E-005
 -3.4001300E-003  5.5446000E-003 -8.8626900E-005
 -3.2661700E-003  4.7174200E-003 -9.3813400E-005
 -3.1338600E-003  3.9067700E-003 -9.8971100E-005
 -3.0033800E-003  3.1137700E-003 -1.0406900E-004
 -2.8749300E-003  2.3394600E-003 -1.0907600E-004
 -2.7486800E-003  1.5849000E-003 -1.1396100E-004
 -2.6248000E-003  8.5109500E-004 -1.1869500E-004
 -2.5034500E-003  1.3903500E-004 -1.2324700E-004
 -2.3847500E-003 -5.5033500E-004 -1.2759000E-004
 -2.2688500E-003 -1.2161200E-003 -1.3169600E-004
 -2.1558300E-003 -1.8574700E-003 -1.3554000E-004
 -2.0458100E-003 -2.4736000E-003 -1.3909800E-004
 -1.9388200E-003 -3.0637600E-003 -1.4235000E-004
 -1.8349400E-003 -3.6272800E-003 -1.4527400E-004
 -1.7341700E-003 -4.1635600E-003 -1.4785400E-004
 -1.6365500E-003 -4.6720600E-003 -1.5007500E-004
 -1.5420500E-003 -5.1523000E-003 -1.5192500E-004
 -1.4506500E-003 -5.6038800E-003 -1.5339200E-004
 -1.3623200E-003 -6.0264900E-003 -1.5446900E-004
 -1.2769700E-003 -6.4198500E-003 -1.5515000E-004
 -1.1945600E-003 -6.7838000E-003 -1.5543200E-004
 -1.1149700E-003 -7.1182200E-003 -1.5531500E-004
 -1.0381500E-003 -7.4230800E-003 -1.5479800E-004
 -9.6396100E-004 -7.6984100E-003 -1.5388600E-004
 -8.9231200E-004 -7.9443300E-003 -1.5258200E-004
 -8.2308000E-004 -8.1609800E-003 -1.5089400E-004
 -7.5614500E-004 -8.3486500E-003 -1.4883000E-004
 -6.9141100E-004 -8.5076100E-003 -1.4639900E-004
 -6.2872400E-004 -8.6382600E-003 -1.4361200E-004
 -5.6802700E-004 -8.7410000E-003 -1.4048100E-004
 -5.0914600E-004 -8.8163800E-003 -1.3701900E-004
 -4.5205200E-004 -8.8648700E-003 -1.3324100E-004
 -3.9658300E-004 -8.8871900E-003 -1.2916000E-004
 -3.4271700E-004 -8.8838900E-003 -1.2479200E-004
 -2.9033400E-004 -8.8557900E-003 -1.2015300E-004
 -2.3940100E-004 -8.8035500E-003 -1.1525800E-004
 -1.8986600E-004 -8.7281100E-003 -1.1012500E-004
 -1.4167000E-004 -8.6301800E-003 -1.0476900E-004
 -9.4842200E-005 -8.5108300E-003 -9.9208300E-005
 -4.9299500E-005 -8.3708300E-003 -9.3458600E-005
 -5.1422500E-006 -8.2113500E-003 -8.7536800E-005
  3.7712000E-005 -8.0332100E-003 -8.1459800E-005
  7.9123900E-005 -7.8377200E-003 -7.5244000E-005
  1.1913900E-004 -7.6256800E-003 -6.8905900E-005
  1.5761900E-004 -7.3985500E-003 -6.2461800E-005
  1.9453700E-004 -7.1571200E-003 -5.5927900E-005
  2.2978700E-004 -6.9030100E-003 -4.9320400E-005
  2.6325300E-004 -6.6369400E-003 -4.2655100E-005
  2.9487600E-004 -6.3607300E-003 -3.5948200E-005
  3.2445400E-004 -6.0749700E-003 -2.9215900E-005
  3.5196700E-004 -5.7817600E-003 -2.2474400E-005
  3.7715200E-004 -5.4815100E-003 -1.5740700E-005
  4.0000700E-004 -5.1765800E-003 -9.0325300E-006
  4.2024400E-004 -4.8671600E-003 -2.3684200E-006