# vtk DataFile Version 3.0
MMH: CalculiX output 'object.frd' file to 'vtk' format
ASCII
DATASET UNSTRUCTURED_GRID
POINTS 3232 double
 6.00000000E-001 2.10000000E-001 0.00000000E+000
 6.00000000E-001 2.08667000E-001 0.00000000E+000
 6.00000000E-001 2.07333000E-001 0.00000000E+000
 6.00000000E-001 2.06000000E-001 0.00000000E+000
 6.00000000E-001 2.04667000E-001 0.00000000E+000
 6.00000000E-001 2.03333000E-001 0.00000000E+000
 6.00000000E-001 2.02000000E-001 0.00000000E+000
 6.00000000E-001 2.00667000E-001 0.00000000E+000
 6.00000000E-001 1.99333000E-001 0.00000000E+000
 6.00000000E-001 1.98000000E-001 0.00000000E+000
 6.00000000E-001 1.96667000E-001 0.00000000E+000
 6.00000000E-001 1.95333000E-001 0.00000000E+000
 6.00000000E-001 1.94000000E-001 0.00000000E+000
 6.00000000E-001 1.92667000E-001 0.00000000E+000
 6.00000000E-001 1.91333000E-001 0.00000000E+000
 6.00000000E-001 1.90000000E-001 0.00000000E+000
 5.96490000E-001 1.90000000E-001 0.00000000E+000
 5.92980000E-001 1.90000000E-001 0.00000000E+000
 5.89470000E-001 1.90000000E-001 0.00000000E+000
 5.85960000E-001 1.90000000E-001 0.00000000E+000
 5.82449000E-001 1.90000000E-001 0.00000000E+000
 5.78939000E-001 1.90000000E-001 0.00000000E+000
 5.75429000E-001 1.90000000E-001 0.00000000E+000
 5.71919000E-001 1.90000000E-001 0.00000000E+000
 5.68409000E-001 1.90000000E-001 0.00000000E+000
 5.64899000E-001 1.90000000E-001 0.00000000E+000
 5.61389000E-001 1.90000000E-001 0.00000000E+000
 5.57879000E-001 1.90000000E-001 0.00000000E+000
 5.54369000E-001 1.90000000E-001 0.00000000E+000
 5.50859000E-001 1.90000000E-001 0.00000000E+000
 5.47348000E-001 1.90000000E-001 0.00000000E+000
 5.43838000E-001 1.90000000E-001 0.00000000E+000
 5.40328000E-001 1.90000000E-001 0.00000000E+000
 5.36818000E-001 1.90000000E-001 0.00000000E+000
 5.33308000E-001 1.90000000E-001 0.00000000E+000
 5.29798000E-001 1.90000000E-001 0.00000000E+000
 5.26288000E-001 1.90000000E-001 0.00000000E+000
 5.22778000E-001 1.90000000E-001 0.00000000E+000
 5.19268000E-001 1.90000000E-001 0.00000000E+000
 5.15758000E-001 1.90000000E-001 0.00000000E+000
 5.12247000E-001 1.90000000E-001 0.00000000E+000
 5.08737000E-001 1.90000000E-001 0.00000000E+000
 5.05227000E-001 1.90000000E-001 0.00000000E+000
 5.01717000E-001 1.90000000E-001 0.00000000E+000
 4.98207000E-001 1.90000000E-001 0.00000000E+000
 4.94697000E-001 1.90000000E-001 0.00000000E+000
 4.91187000E-001 1.90000000E-001 0.00000000E+000
 4.87677000E-001 1.90000000E-001 0.00000000E+000
 4.84167000E-001 1.90000000E-001 0.00000000E+000
 4.80657000E-001 1.90000000E-001 0.00000000E+000
 4.77146000E-001 1.90000000E-001 0.00000000E+000
 4.73636000E-001 1.90000000E-001 0.00000000E+000
 4.70126000E-001 1.90000000E-001 0.00000000E+000
 4.66616000E-001 1.90000000E-001 0.00000000E+000
 4.63106000E-001 1.90000000E-001 0.00000000E+000
 4.59596000E-001 1.90000000E-001 0.00000000E+000
 4.56086000E-001 1.90000000E-001 0.00000000E+000
 4.52576000E-001 1.90000000E-001 0.00000000E+000
 4.49066000E-001 1.90000000E-001 0.00000000E+000
 4.45556000E-001 1.90000000E-001 0.00000000E+000
 4.42045000E-001 1.90000000E-001 0.00000000E+000
 4.38535000E-001 1.90000000E-001 0.00000000E+000
 4.35025000E-001 1.90000000E-001 0.00000000E+000
 4.31515000E-001 1.90000000E-001 0.00000000E+000
 4.28005000E-001 1.90000000E-001 0.00000000E+000
 4.24495000E-001 1.90000000E-001 0.00000000E+000
 4.20985000E-001 1.90000000E-001 0.00000000E+000
 4.17475000E-001 1.90000000E-001 0.00000000E+000
 4.13965000E-001 1.90000000E-001 0.00000000E+000
 4.10455000E-001 1.90000000E-001 0.00000000E+000
 4.06944000E-001 1.90000000E-001 0.00000000E+000
 4.03434000E-001 1.90000000E-001 0.00000000E+000
 3.99924000E-001 1.90000000E-001 0.00000000E+000
 3.96414000E-001 1.90000000E-001 0.00000000E+000
 3.92904000E-001 1.90000000E-001 0.00000000E+000
 3.89394000E-001 1.90000000E-001 0.00000000E+000
 3.85884000E-001 1.90000000E-001 0.00000000E+000
 3.82374000E-001 1.90000000E-001 0.00000000E+000
 3.78864000E-001 1.90000000E-001 0.00000000E+000
 3.75353000E-001 1.90000000E-001 0.00000000E+000
 3.71843000E-001 1.90000000E-001 0.00000000E+000
 3.68333000E-001 1.90000000E-001 0.00000000E+000
 3.64823000E-001 1.90000000E-001 0.00000000E+000
 3.61313000E-001 1.90000000E-001 0.00000000E+000
 3.57803000E-001 1.90000000E-001 0.00000000E+000
 3.54293000E-001 1.90000000E-001 0.00000000E+000
 3.50783000E-001 1.90000000E-001 0.00000000E+000
 3.47273000E-001 1.90000000E-001 0.00000000E+000
 3.43763000E-001 1.90000000E-001 0.00000000E+000
 3.40252000E-001 1.90000000E-001 0.00000000E+000
 3.36742000E-001 1.90000000E-001 0.00000000E+000
 3.33232000E-001 1.90000000E-001 0.00000000E+000
 3.29722000E-001 1.90000000E-001 0.00000000E+000
 3.26212000E-001 1.90000000E-001 0.00000000E+000
 3.22702000E-001 1.90000000E-001 0.00000000E+000
 3.19192000E-001 1.90000000E-001 0.00000000E+000
 3.15682000E-001 1.90000000E-001 0.00000000E+000
 3.12172000E-001 1.90000000E-001 0.00000000E+000
 3.08661000E-001 1.90000000E-001 0.00000000E+000
 3.05151000E-001 1.90000000E-001 0.00000000E+000
 3.01641000E-001 1.90000000E-001 0.00000000E+000
 2.98131000E-001 1.90000000E-001 0.00000000E+000
 2.94621000E-001 1.90000000E-001 0.00000000E+000
 2.91111000E-001 1.90000000E-001 0.00000000E+000
 2.87601000E-001 1.90000000E-001 0.00000000E+000
 2.84091000E-001 1.90000000E-001 0.00000000E+000
 2.80581000E-001 1.90000000E-001 0.00000000E+000
 2.77071000E-001 1.90000000E-001 0.00000000E+000
 2.73560000E-001 1.90000000E-001 0.00000000E+000
 2.70050000E-001 1.90000000E-001 0.00000000E+000
 2.66540000E-001 1.90000000E-001 0.00000000E+000
 2.63030000E-001 1.90000000E-001 0.00000000E+000
 2.59520000E-001 1.90000000E-001 0.00000000E+000
 2.56010000E-001 1.90000000E-001 0.00000000E+000
 2.52500000E-001 1.90000000E-001 0.00000000E+000
 2.48990000E-001 1.90000000E-001 0.00000000E+000
 2.48990000E-001 1.91333000E-001 0.00000000E+000
 2.48990000E-001 1.92667000E-001 0.00000000E+000
 2.48990000E-001 1.94000000E-001 0.00000000E+000
 2.48990000E-001 1.95333000E-001 0.00000000E+000
 2.48990000E-001 1.96667000E-001 0.00000000E+000
 2.48990000E-001 1.98000000E-001 0.00000000E+000
 2.48990000E-001 1.99333000E-001 0.00000000E+000
 2.48990000E-001 2.00667000E-001 0.00000000E+000
 2.48990000E-001 2.02000000E-001 0.00000000E+000
 2.48990000E-001 2.03333000E-001 0.00000000E+000
 2.48990000E-001 2.04667000E-001 0.00000000E+000
 2.48990000E-001 2.06000000E-001 0.00000000E+000
 2.48990000E-001 2.07333000E-001 0.00000000E+000
 2.48990000E-001 2.08667000E-001 0.00000000E+000
 2.48990000E-001 2.10000000E-001 0.00000000E+000
 2.52500000E-001 2.10000000E-001 0.00000000E+000
 2.56010000E-001 2.10000000E-001 0.00000000E+000
 2.59520000E-001 2.10000000E-001 0.00000000E+000
 2.63030000E-001 2.10000000E-001 0.00000000E+000
 2.66540000E-001 2.10000000E-001 0.00000000E+000
 2.70050000E-001 2.10000000E-001 0.00000000E+000
 2.73560000E-001 2.10000000E-001 0.00000000E+000
 2.77071000E-001 2.10000000E-001 0.00000000E+000
 2.80581000E-001 2.10000000E-001 0.00000000E+000
 2.84091000E-001 2.10000000E-001 0.00000000E+000
 2.87601000E-001 2.10000000E-001 0.00000000E+000
 2.91111000E-001 2.10000000E-001 0.00000000E+000
 2.94621000E-001 2.10000000E-001 0.00000000E+000
 2.98131000E-001 2.10000000E-001 0.00000000E+000
 3.01641000E-001 2.10000000E-001 0.00000000E+000
 3.05151000E-001 2.10000000E-001 0.00000000E+000
 3.08661000E-001 2.10000000E-001 0.00000000E+000
 3.12172000E-001 2.10000000E-001 0.00000000E+000
 3.15682000E-001 2.10000000E-001 0.00000000E+000
 3.19192000E-001 2.10000000E-001 0.00000000E+000
 3.22702000E-001 2.10000000E-001 0.00000000E+000
 3.26212000E-001 2.10000000E-001 0.00000000E+000
 3.29722000E-001 2.10000000E-001 0.00000000E+000
 3.33232000E-001 2.10000000E-001 0.00000000E+000
 3.36742000E-001 2.10000000E-001 0.00000000E+000
 3.40252000E-001 2.10000000E-001 0.00000000E+000
 3.43763000E-001 2.10000000E-001 0.00000000E+000
 3.47273000E-001 2.10000000E-001 0.00000000E+000
 3.50783000E-001 2.10000000E-001 0.00000000E+000
 3.54293000E-001 2.10000000E-001 0.00000000E+000
 3.57803000E-001 2.10000000E-001 0.00000000E+000
 3.61313000E-001 2.10000000E-001 0.00000000E+000
 3.64823000E-001 2.10000000E-001 0.00000000E+000
 3.68333000E-001 2.10000000E-001 0.00000000E+000
 3.71843000E-001 2.10000000E-001 0.00000000E+000
 3.75353000E-001 2.10000000E-001 0.00000000E+000
 3.78864000E-001 2.10000000E-001 0.00000000E+000
 3.82374000E-001 2.10000000E-001 0.00000000E+000
 3.85884000E-001 2.10000000E-001 0.00000000E+000
 3.89394000E-001 2.10000000E-001 0.00000000E+000
 3.92904000E-001 2.10000000E-001 0.00000000E+000
 3.96414000E-001 2.10000000E-001 0.00000000E+000
 3.99924000E-001 2.10000000E-001 0.00000000E+000
 4.03434000E-001 2.10000000E-001 0.00000000E+000
 4.06944000E-001 2.10000000E-001 0.00000000E+000
 4.10455000E-001 2.10000000E-001 0.00000000E+000
 4.13965000E-001 2.10000000E-001 0.00000000E+000
 4.17475000E-001 2.10000000E-001 0.00000000E+000
 4.20985000E-001 2.10000000E-001 0.00000000E+000
 4.24495000E-001 2.10000000E-001 0.00000000E+000
 4.28005000E-001 2.10000000E-001 0.00000000E+000
 4.31515000E-001 2.10000000E-001 0.00000000E+000
 4.35025000E-001 2.10000000E-001 0.00000000E+000
 4.38535000E-001 2.10000000E-001 0.00000000E+000
 4.42045000E-001 2.10000000E-001 0.00000000E+000
 4.45556000E-001 2.10000000E-001 0.00000000E+000
 4.49066000E-001 2.10000000E-001 0.00000000E+000
 4.52576000E-001 2.10000000E-001 0.00000000E+000
 4.56086000E-001 2.10000000E-001 0.00000000E+000
 4.59596000E-001 2.10000000E-001 0.00000000E+000
 4.63106000E-001 2.10000000E-001 0.00000000E+000
 4.66616000E-001 2.10000000E-001 0.00000000E+000
 4.70126000E-001 2.10000000E-001 0.00000000E+000
 4.73636000E-001 2.10000000E-001 0.00000000E+000
 4.77146000E-001 2.10000000E-001 0.00000000E+000
 4.80657000E-001 2.10000000E-001 0.00000000E+000
 4.84167000E-001 2.10000000E-001 0.00000000E+000
 4.87677000E-001 2.10000000E-001 0.00000000E+000
 4.91187000E-001 2.10000000E-001 0.00000000E+000
 4.94697000E-001 2.10000000E-001 0.00000000E+000
[...]
POINT_DATA 3232
VECTORS DISP double
 -8.4927300E-004 -1.6822800E-002  3.0033100E-005
 -1.1394400E-003 -1.6792000E-002  2.9897500E-005
 -1.4318500E-003 -1.6759300E-002  2.9490700E-005
 -1.7228700E-003 -1.6727100E-002  2.8848500E-005
 -2.0144800E-003 -1.6694700E-002  2.8014300E-005
 -2.3056700E-003 -1.6662400E-002  2.7020900E-005
 -2.5970200E-003 -1.6630100E-002  2.5912800E-005
 -2.8882300E-003 -1.6597800E-002  2.4734100E-005
 -3.1795500E-003 -1.6565600E-002  2.3534700E-005
 -3.4707500E-003 -1.6533400E-002  2.2363400E-005
 -3.7620800E-003 -1.6501300E-002  2.1268800E-005
 -4.0533400E-003 -1.6469100E-002  2.0296400E-005
 -4.3447500E-003 -1.6437000E-002  1.9488700E-005
 -4.6359900E-003 -1.6404900E-002  1.8879500E-005
 -4.9276900E-003 -1.6372800E-002  1.8500800E-005
 -5.2185800E-003 -1.6340600E-002  1.8373800E-005
 -5.1340700E-003 -1.5573900E-002  1.8247000E-005
 -5.0487100E-003 -1.4806600E-002  1.7866000E-005
 -4.9636800E-003 -1.4039900E-002  1.7229600E-005
 -4.8780200E-003 -1.3272900E-002  1.6329200E-005
 -4.7921500E-003 -1.2506400E-002  1.5154200E-005
 -4.7055700E-003 -1.1740100E-002  1.3696700E-005
 -4.6184300E-003 -1.0974700E-002  1.1949200E-005
 -4.5304100E-003 -1.0210100E-002  9.9074600E-006
 -4.4415800E-003 -9.4471000E-003  7.5697000E-006
 -4.3516900E-003 -8.6857800E-003  4.9371000E-006
 -4.2608300E-003 -7.9271000E-003  2.0145000E-006
 -4.1688100E-003 -7.1712500E-003 -1.1908800E-006
 -4.0757000E-003 -6.4192600E-003 -4.6678900E-006
 -3.9813900E-003 -5.6715700E-003 -8.4030200E-006
 -3.8859900E-003 -4.9291700E-003 -1.2379400E-005
 -3.7894200E-003 -4.1927600E-003 -1.6577500E-005
 -3.6918100E-003 -3.4632800E-003 -2.0975600E-005
 -3.5931600E-003 -2.7416600E-003 -2.5548800E-005
 -3.4935900E-003 -2.0287600E-003 -3.0271200E-005
 -3.3931900E-003 -1.3257000E-003 -3.5113900E-005
 -3.2920600E-003 -6.3331200E-004 -4.0047900E-005
 -3.1903500E-003  4.7230600E-005 -4.5041400E-005
 -3.0881700E-003  7.1506900E-004 -5.0063000E-005
 -2.9856900E-003  1.3690600E-003 -5.5080000E-005
 -2.8830300E-003  2.0083100E-003 -6.0059800E-005
 -2.7804000E-003  2.6317500E-003 -6.4970200E-005
 -2.6779000E-003  3.2384200E-003 -6.9778800E-005
 -2.5757300E-003  3.8274300E-003 -7.4454800E-005
 -2.4740400E-003  4.3977800E-003 -7.8967800E-005
 -2.3729600E-003  4.9487300E-003 -8.3289400E-005
 -2.2726700E-003  5.4793000E-003 -8.7392200E-005
 -2.1732700E-003  5.9888600E-003 -9.1251500E-005
 -2.0749300E-003  6.4765600E-003 -9.4843700E-005
 -1.9777300E-003  6.9418200E-003 -9.8148500E-005
 -1.8818000E-003  7.3839700E-003 -1.0114700E-004
 -1.7872000E-003  7.8024800E-003 -1.0382300E-004
 -1.6940600E-003  8.1968700E-003 -1.0616400E-004
 -1.6024000E-003  8.5666500E-003 -1.0815800E-004
 -1.5123000E-003  8.9115600E-003 -1.0979600E-004
 -1.4238000E-003  9.2311600E-003 -1.1107200E-004
 -1.3369100E-003  9.5253700E-003 -1.1198300E-004
 -1.2516800E-003  9.7938600E-003 -1.1252600E-004
 -1.1680700E-003  1.0036700E-002 -1.1270300E-004
 -1.0861300E-003  1.0253600E-002 -1.1251500E-004
 -1.0058100E-003  1.0444800E-002 -1.1196600E-004
 -9.2711600E-004  1.0610300E-002 -1.1106200E-004
 -8.5000800E-004  1.0750200E-002 -1.0981000E-004
 -7.7447500E-004  1.0864700E-002 -1.0822000E-004
 -7.0048100E-004  1.0953900E-002 -1.0629900E-004
 -6.2799000E-004  1.1018500E-002 -1.0406000E-004
 -5.5699200E-004  1.1058400E-002 -1.0151300E-004
 -4.8742400E-004  1.1074200E-002 -9.8671400E-005
 -4.1931200E-004  1.1066300E-002 -9.5547000E-005
 -3.5256700E-004  1.1035300E-002 -9.2153600E-005
 -2.8725600E-004  1.0981600E-002 -8.8504500E-005
 -2.2327400E-004  1.0905700E-002 -8.4613800E-005
 -1.6072100E-004  1.0808500E-002 -8.0495400E-005
 -9.9495900E-005  1.0690400E-002 -7.6163100E-005
 -3.9717800E-005  1.0552300E-002 -7.1631500E-005
  1.8690100E-005  1.0394600E-002 -6.6913900E-005
  7.5604200E-005  1.0218500E-002 -6.2025100E-005
  1.3106200E-004  1.0024300E-002 -5.6977800E-005
  1.8494000E-004  9.8134100E-003 -5.1786300E-005
  2.3723800E-004  9.5861500E-003 -4.6463400E-005
  2.8782300E-004  9.3438500E-003 -4.1022300E-005
  3.3667200E-004  9.0870900E-003 -3.5475900E-005
  3.8361900E-004  8.8170700E-003 -2.9836300E-005
  4.2864800E-004  8.5346100E-003 -2.4116600E-005
  4.7153100E-004  8.2408200E-003 -1.8327800E-005
  5.1229600E-004  7.9366500E-003 -1.2483500E-005
  5.5060900E-004  7.6232600E-003 -6.5939000E-006
  5.8659200E-004  7.3015500E-003 -6.7275200E-007
  6.1977200E-004  6.9729500E-003  5.2695000E-006
  6.5039000E-004  6.6380800E-003  1.1218800E-005
  6.7782100E-004  6.2988400E-003  1.7163700E-005
  7.0243800E-004  5.9554000E-003  2.3089300E-005
  7.2347100E-004  5.6102600E-003  2.8981500E-005
  7.4141900E-004  5.2630300E-003  3.4823800E-005
  7.5538600E-004  4.9168800E-003  4.0597900E-005
  7.6598100E-004  4.5708300E-003  4.6283100E-005
  7.7221100E-004  4.2287200E-003  5.1855400E-005
  7.7477700E-004  3.8890200E-003  5.7286400E-005
  7.7262200E-004  3.5561800E-003  6.2542900E-005
  7.6651500E-004  3.2281300E-003  6.7583400E-005
  7.5537400E-004  2.9099600E-003  7.2360800E-005
  7.4000200E-004  2.5989800E-003  7.6812300E-005
  7.1935800E-004  2.3011200E-003  8.0868800E-005
  6.9419100E-004  2.0127100E-003  8.4434100E-005
  6.6366400E-004  1.7410300E-003  8.7404200E-005
  6.2824200E-004  1.4807600E-003  8.9631400E-005
  5.8765000E-004  1.2413500E-003  9.0956400E-005
  5.4156400E-004  1.0148100E-003  9.1150500E-005
  4.9103400E-004  8.1407700E-004  8.9968000E-005
  4.3384900E-004  6.2674200E-004  8.7048900E-005
  3.7398800E-004  4.7157800E-004  8.2012600E-005
  3.0501600E-004  3.2855500E-004  7.4269600E-005
  2.3764300E-004  2.2727900E-004  6.3239900E-005
  1.5648100E-004  1.3157300E-004  4.7911200E-005
  9.1237400E-005  9.4273600E-005  2.7601000E-005
  0.0000000E+000  0.0000000E+000  0.0000000E+000
  0.0000000E+000  0.0000000E+000  0.0000000E+000
  0.0000000E+000  0.0000000E+000  0.0000000E+000
  0.0000000E+000  0.0000000E+000  0.0000000E+000
  0.0000000E+000  0.0000000E+000  0.0000000E+000
  0.0000000E+000  0.0000000E+000  0.0000000E+000
  0.0000000E+000  0.0000000E+000  0.0000000E+000
  0.0000000E+000  0.0000000E+000  0.0000000E+000
  0.0000000E+000  0.0000000E+000  0.0000000E+000
  0.0000000E+000  0.0000000E+000  0.0000000E+000
  0.0000000E+000  0.0000000E+000  0.0000000E+000
  0.0000000E+000  0.0000000E+000  0.0000000E+000
  0.0000000E+000  0.0000000E+000  0.0000000E+000
  0.0000000E+000  0.0000000E+000  0.0000000E+000
  0.0000000E+000  0.0000000E+000  0.0000000E+000
  0.0000000E+000  0.0000000E+000  0.0000000E+000
 -9.8106100E-005  9.8855100E-005 -2.3600000E-005
 -1.6440600E-004  1.3278700E-004 -4.0033600E-005
 -2.5160600E-004  2.2627500E-004 -5.1582000E-005
 -3.2432900E-004  3.2250200E-004 -5.8865400E-005
 -4.0137300E-004  4.6152700E-004 -6.2908500E-005
 -4.7035300E-004  6.1027400E-004 -6.4295300E-005
 -5.3904800E-004  7.9265200E-004 -6.3632000E-005
 -6.0285900E-004  9.8618900E-004 -6.1314000E-005
 -6.6459600E-004  1.2073400E-003 -5.7715700E-005
 -7.2287800E-004  1.4394000E-003 -5.3099400E-005
 -7.7828400E-004  1.6942600E-003 -4.7704800E-005
 -8.3085000E-004  1.9590300E-003 -4.1706400E-005
 -8.8016200E-004  2.2423300E-003 -3.5260700E-005
 -9.2684600E-004  2.5341600E-003 -2.8483500E-005
 -9.7007700E-004  2.8406100E-003 -2.1478700E-005
 -1.0106700E-003  3.1539800E-003 -1.4322500E-005
 -1.0477000E-003  3.4783100E-003 -7.0848200E-006
 -1.0819600E-003  3.8077700E-003  1.8461900E-007
 -1.1125700E-003  4.1448100E-003  7.4379300E-006
 -1.1402100E-003  4.4849900E-003  1.4643300E-005
 -1.1641400E-003  4.8296300E-003  2.1767400E-005
 -1.1848800E-003  5.1752400E-003  2.8790100E-005
 -1.2018400E-003  5.5224700E-003  3.5688700E-005
 -1.2153800E-003  5.8683400E-003  4.2449900E-005
 -1.2251000E-003  6.2132300E-003  4.9058900E-005
 -1.2312100E-003  6.5543500E-003  5.5506400E-005
 -1.2334400E-003  6.8920300E-003  6.1783100E-005
 -1.2319200E-003  7.2235400E-003  6.7882500E-005
 -1.2264700E-003  7.5492300E-003  7.3799400E-005
 -1.2171900E-003  7.8664300E-003  7.9528400E-005
 -1.2039500E-003  8.1754700E-003  8.5067300E-005
 -1.1868900E-003  8.4738600E-003  9.0411700E-005
 -1.1658500E-003  8.7617200E-003  9.5560600E-005
 -1.1410500E-003  9.0369600E-003  1.0051100E-004
 -1.1123300E-003  9.2993000E-003  1.0526300E-004
 -1.0799700E-003  9.5471800E-003  1.0981300E-004
 -1.0438300E-003  9.7799000E-003  1.1416100E-004
 -1.0041900E-003  9.9964000E-003  1.1830600E-004
 -9.6101600E-004  1.0195600E-002  1.2224600E-004
 -9.1456600E-004  1.0376900E-002  1.2598000E-004
 -8.6488300E-004  1.0539100E-002  1.2950500E-004
 -8.1221100E-004  1.0681600E-002  1.3282200E-004
 -7.5670200E-004  1.0803300E-002  1.3592600E-004
 -6.9856700E-004  1.0903800E-002  1.3881600E-004
 -6.3805500E-004  1.0982100E-002  1.4148900E-004
 -5.7537100E-004  1.1037500E-002  1.4394200E-004
 -5.1082400E-004  1.1069600E-002  1.4617200E-004
 -4.4465200E-004  1.1077400E-002  1.4817400E-004
 -3.7718100E-004  1.1060900E-002  1.4994600E-004
 -3.0871400E-004  1.1018900E-002  1.5148100E-004
 -2.3956200E-004  1.0951800E-002  1.5277600E-004
 -1.7010600E-004  1.0858500E-002  1.5382500E-004
 -1.0062900E-004  1.0739100E-002  1.5462300E-004
 -3.1578500E-005  1.0593100E-002  1.5516500E-004
  3.6774200E-005  1.0420500E-002  1.5544600E-004
  1.0396100E-004  1.0221000E-002  1.5546000E-004
  1.6968800E-004  9.9945900E-003  1.5520300E-004
  2.3351700E-004  9.7414700E-003  1.5467100E-004
  2.9510500E-004  9.4612700E-003  1.5385900E-004
  3.5408400E-004  9.1547600E-003  1.5276600E-004
  4.1005500E-004  8.8214900E-003  1.5138700E-004
  4.6273500E-004  8.4624300E-003  1.4972600E-004
  5.1169500E-004  8.0773600E-003  1.4778000E-004
  5.5671800E-004  7.6672000E-003  1.4555400E-004
  5.9740200E-004  7.2321600E-003  1.4305100E-004
  6.3356000E-004  6.7729900E-003  1.4027700E-004
  6.6487400E-004  6.2903600E-003  1.3724200E-004
  6.9115800E-004  5.7848200E-003  1.3395600E-004
  7.1221900E-004  5.2575000E-003  1.3043100E-004
  7.2786300E-004  4.7088000E-003  1.2668400E-004
  7.3803500E-004  4.1401100E-003  1.2273200E-004
  7.4255100E-004  3.5518900E-003  1.1859400E-004
  7.4147200E-004  2.9455700E-003  1.1429300E-004
  7.3466400E-004  2.3218100E-003  1.0985300E-004
  7.2226200E-004  1.6819100E-003  1.0530000E-004
  7.0422400E-004  1.0267800E-003  1.0066100E-004
  6.8072300E-004  3.5757300E-004  9.5964600E-005
  6.5182400E-004 -3.2459800E-004  9.1240700E-005
  6.1772600E-004 -1.0187800E-003  8.6519300E-005
  5.7859100E-004 -1.7237300E-003  8.1831100E-005
  5.3464100E-004 -2.4386200E-003  7.7206500E-005
  4.8611300E-004 -3.1621500E-003  7.2675600E-005
  4.3325600E-004 -3.8936700E-003  6.8267600E-005
  3.7635500E-004 -4.6318400E-003  6.4010100E-005
  3.1568000E-004 -5.3762100E-003  5.9930200E-005
  2.5155500E-004 -6.1254000E-003  5.6051700E-005
  1.8424200E-004 -6.8792300E-003  5.2397500E-005
  1.1410800E-004 -7.6362300E-003  4.8986800E-005
  4.1376600E-005 -8.3966000E-003  4.5837100E-005
 -3.3542100E-005 -9.1587000E-003  4.2961900E-005
 -1.1048300E-004 -9.9232000E-003  4.0372400E-005
 -1.8901200E-004 -1.0688200E-002  3.8075400E-005
 -2.6901800E-004 -1.1455000E-002  3.6075800E-005
 -3.5009000E-004 -1.2221400E-002  3.4372600E-005
 -4.3212100E-004 -1.2989200E-002  3.2965600E-005
 -5.1482900E-004 -1.3755600E-002  3.1845800E-005
 -5.9796300E-004 -1.4523800E-002  3.1009100E-005
 -6.8163000E-004 -1.5289500E-002  3.0438500E-005
 -7.6488500E-004 -1.6058300E-002  3.0122500E-005
 -1.0565600E-003 -1.6024600E-002  2.9986700E-005
 -9.7260400E-004 -1.5258100E-002  3.0295300E-005
 -8.8916300E-004 -1.4490400E-002  3.0853600E-005
 -8.0595300E-004 -1.3723600E-002  3.1670300E-005
 -7.2306400E-004 -1.2955800E-002  3.2761800E-005
 -6.4095000E-004 -1.2188900E-002  3.4133800E-005
 -5.5944000E-004 -1.1421500E-002  3.5793500E-005
 -4.7912400E-004 -1.0655400E-002  3.7742600E-005
 -3.9986200E-004 -9.8894900E-003  3.9980900E-005
 -3.2224800E-004 -9.1254100E-003  4.2504300E-005
 -2.4622000E-004 -8.3626400E-003  4.5305700E-005
 -1.7234200E-004 -7.6025700E-003  4.8374400E-005
 -1.0063100E-004 -6.8450600E-003  5.1697000E-005
 -3.1602400E-005 -6.0914500E-003  5.5256700E-005
  3.4657600E-005 -5.3419200E-003  5.9034300E-005
  9.7694800E-005 -4.5977400E-003  6.3008000E-005
  1.5736800E-004 -3.8593800E-003  6.7154000E-005
  2.1329200E-004 -3.1280800E-003  7.1446400E-005
  2.6529600E-004 -2.4044900E-003  7.5858000E-005
  3.1306000E-004 -1.6898800E-003  8.0360300E-005
  3.5641600E-004 -9.8503600E-004  8.4924000E-005
  3.9510200E-004 -2.9118800E-004  8.9519700E-005
  4.2898600E-004  3.9071600E-004  9.4117400E-005
  4.5785600E-004  1.0595400E-003  9.8687800E-005
  4.8163800E-004  1.7142200E-003  1.0320200E-004
  5.0018000E-004  2.3536900E-003  1.0763200E-004
  5.1346400E-004  2.9768200E-003  1.1195200E-004
  5.2142100E-004  3.5827000E-003  1.1613600E-004
  5.2407100E-004  4.1701300E-003  1.2016100E-004
  5.2145800E-004  4.7383400E-003  1.2400600E-004
  5.1361600E-004  5.2861700E-003  1.2765100E-004
  5.0072000E-004  5.8129300E-003  1.3108000E-004
  4.8281100E-004  6.3176000E-003  1.3427600E-004
  4.6017700E-004  6.7995400E-003  1.3722900E-004
  4.3288700E-004  7.2579400E-003  1.3992800E-004
  4.0130200E-004  7.6921400E-003  1.4236300E-004
  3.6554900E-004  8.1016600E-003  1.4453100E-004
  3.2601100E-004  8.4857800E-003  1.4642500E-004
  2.8290600E-004  8.8443200E-003  1.4804400E-004
  2.3658300E-004  9.1766100E-003  1.4938800E-004
  1.8737700E-004  9.4826600E-003  1.5045600E-004
  1.3557400E-004  9.7619400E-003  1.5125000E-004
  8.1607400E-005  1.0014600E-002  1.5177400E-004
  2.5711700E-005  1.0240300E-002  1.5203000E-004
 -3.1624200E-005  1.0439200E-002  1.5202300E-004
 -9.0188500E-005  1.0611300E-002  1.5175800E-004
 -1.4949500E-004  1.0756700E-002  1.5124000E-004
 -2.0931500E-004  1.0875700E-002  1.5047300E-004
 -2.6922000E-004  1.0968400E-002  1.4946300E-004
 -3.2893200E-004  1.1035300E-002  1.4821400E-004
 -3.8812100E-004  1.1076600E-002  1.4673200E-004
 -4.4644800E-004  1.1093000E-002  1.4502100E-004
 -5.0369100E-004  1.1084700E-002  1.4308500E-004
 -5.5946400E-004  1.1052400E-002  1.4092800E-004
 -6.1363600E-004  1.0996700E-002  1.3855400E-004
 -6.6581400E-004  1.0918200E-002  1.3596500E-004
 -7.1591800E-004  1.0817500E-002  1.3316600E-004
 -7.6359600E-004  1.0695500E-002  1.3015700E-004
 -8.0877500E-004  1.0552900E-002  1.2694200E-004
 -8.5119000E-004  1.0390400E-002  1.2352300E-004
 -8.9073800E-004  1.0209000E-002  1.1990000E-004
 -9.2726800E-004  1.0009500E-002  1.1607500E-004
 -9.6063500E-004  9.7928100E-003  1.1205000E-004
 -9.9079800E-004  9.5599200E-003  1.0782600E-004
 -1.0175900E-003  9.3116400E-003  1.0340300E-004
 -1.0410400E-003  9.0492700E-003  9.8783100E-005
 -1.0609900E-003  8.7734000E-003  9.3967400E-005
 -1.0775200E-003  8.4856500E-003  8.8957100E-005
 -1.0905100E-003  8.1863700E-003  8.3754200E-005
 -1.1000300E-003  7.8775100E-003  7.8360400E-005
 -1.1060600E-003  7.5592300E-003  7.2778800E-005
 -1.1085900E-003  7.2337100E-003  6.7012400E-005
 -1.1077400E-003  6.9009800E-003  6.1065700E-005
 -1.1034300E-003  6.5634000E-003  5.4943900E-005
 -1.0958600E-003  6.2209200E-003  4.8653600E-005
 -1.0849300E-003  5.8760800E-003  4.2203000E-005
 -1.0708700E-003  5.5286500E-003  3.5602300E-005
 -1.0535900E-003  5.1814600E-003  2.8864300E-005
 -1.0333200E-003  4.8340200E-003  2.2004300E-005
 -1.0100200E-003  4.4895500E-003  1.5041400E-005
 -9.8381400E-004  4.1470800E-003  7.9989000E-006
 -9.5482700E-004  3.8105300E-003  9.0558100E-007
 -9.2299700E-004  3.4781400E-003 -6.2036800E-006
 -8.8864400E-004  3.1548200E-003 -1.3285800E-005
 -8.5145000E-004  2.8376700E-003 -2.0288300E-005
 -8.1203300E-004  2.5330100E-003 -2.7146700E-005
 -7.6966200E-004  2.2363400E-003 -3.3782000E-005
 -7.2545800E-004  1.9558400E-003 -4.0097600E-005
 -6.7796200E-004  1.6849300E-003 -4.5974100E-005
 -6.2923300E-004  1.4342300E-003 -5.1265900E-005
 -5.7644200E-004  1.1943600E-003 -5.5792800E-005
 -5.2349300E-004  9.7923400E-004 -5.9332900E-005
 -4.6487100E-004  7.7562000E-004 -6.1613200E-005
 -4.0817700E-004  6.0204200E-004 -6.2292000E-005
 -3.4254100E-004  4.3977600E-004 -6.0952200E-005
 -2.8311200E-004  3.1404600E-004 -5.7054300E-005
 -2.0832700E-004  1.9865800E-004 -4.9972800E-005
 -1.4932100E-004  1.2671400E-004 -3.8838700E-005
 -6.3720800E-005  6.4467800E-005 -2.2944600E-005
 -1.3472700E-003 -1.5992400E-002  2.9583200E-005
 -1.2640400E-003 -1.5225400E-002  2.9876800E-005
 -1.1801600E-003 -1.4458200E-002  3.0396800E-005
 -1.0969500E-003 -1.3690800E-002  3.1156300E-005
 -1.0139400E-003 -1.2923400E-002  3.2167100E-005
 -9.3145700E-004 -1.2155900E-002  3.3438300E-005
 -8.4973300E-004 -1.1388800E-002  3.4974500E-005
 -7.6876100E-004 -1.0622100E-002  3.6778800E-005
 -6.8900000E-004 -9.8565300E-003  3.8850100E-005
 -6.1039100E-004 -9.0920100E-003  4.1184900E-005
 -5.3345600E-004 -8.3294600E-003  4.3776300E-005
 -4.5816200E-004 -7.5690300E-003  4.6614400E-005
 -3.8503100E-004 -6.8117200E-003  4.9686500E-005
 -3.1407900E-004 -6.0578800E-003  5.2977200E-005
 -2.4579800E-004 -5.3085500E-003  5.6468400E-005
 -1.8025200E-004 -4.5642600E-003  6.0139800E-005
 -1.1788400E-004 -3.8261300E-003  6.3969300E-005
 -5.8797900E-005 -3.0948500E-003  6.7933000E-005
 -3.3754400E-006 -2.3715700E-003  7.2005400E-005
  4.8261800E-005 -1.6571100E-003  7.6160400E-005
  9.5787500E-005 -9.5263700E-004  8.0370900E-005
  1.3909700E-004 -2.5910000E-004  8.4609400E-005
  1.7791000E-004  4.2236700E-004  8.8848700E-005
  2.1216800E-004  1.0907200E-003  9.3061500E-005
  2.4163800E-004  1.7449000E-003  9.7221300E-005
  2.6631400E-004  2.3837700E-003  1.0130300E-004
  2.8602900E-004  3.0063300E-003  1.0528100E-004
  3.0082200E-004  3.6114900E-003  1.0913400E-004
  3.1062200E-004  4.1982800E-003  1.1284000E-004
  3.1548000E-004  4.7656900E-003  1.1637900E-004
  3.1546100E-004  5.3128200E-003  1.1973400E-004
  3.1060100E-004  5.8387500E-003  1.2289000E-004
  3.0111000E-004  6.3426600E-003  1.2583300E-004
  2.8700900E-004  6.8237700E-003  1.2855200E-004
  2.6863200E-004  7.2813400E-003  1.3103700E-004
  2.4601300E-004  7.7147700E-003  1.3328200E-004
  2.1954900E-004  8.1234200E-003  1.3528100E-004
  1.8934100E-004  8.5068300E-003  1.3703000E-004
  1.5577700E-004  8.8645000E-003  1.3852800E-004
  1.1907400E-004  9.1961300E-003  1.3977400E-004
  7.9550700E-005  9.5013700E-003  1.4076900E-004
  3.7558000E-005  9.7800300E-003  1.4151400E-004
 -6.6731000E-006  1.0032000E-002  1.4201200E-004
 -5.2681000E-005  1.0257100E-002  1.4226700E-004
 -1.0030200E-004  1.0455400E-002  1.4228200E-004
 -1.4902300E-004  1.0626900E-002  1.4206100E-004
 -1.9869700E-004  1.0771800E-002  1.4161000E-004
 -2.4883700E-004  1.0890300E-002  1.4093200E-004
 -2.9925500E-004  1.0982700E-002  1.4003200E-004
 -3.4955500E-004  1.1049200E-002  1.3891400E-004
 -3.9947000E-004  1.1090200E-002  1.3758200E-004
 -4.4873500E-004  1.1106200E-002  1.3604200E-004
 -4.9700000E-004  1.1097700E-002  1.3429400E-004
 -5.4412100E-004  1.1065100E-002  1.3234400E-004
 -5.8970400E-004  1.1009200E-002  1.3019500E-004
 -6.3368100E-004  1.0930500E-002  1.2784700E-004
 -6.7567800E-004  1.0829700E-002  1.2530500E-004
 -7.1564100E-004  1.0707500E-002  1.2256900E-004
 -7.5328100E-004  1.0564700E-002  1.1964100E-004
 -7.8850400E-004  1.0402100E-002  1.1652300E-004
 -8.2115200E-004  1.0220600E-002  1.1321500E-004
 -8.5105900E-004  1.0020900E-002  1.0971900E-004
 -8.7821300E-004  9.8041600E-003  1.0603400E-004
 -9.0238200E-004  9.5710200E-003  1.0216200E-004
 -9.2367300E-004  9.3227300E-003  9.8103200E-005
 -9.4182800E-004  9.0599900E-003  9.3857900E-005
 -9.5701800E-004  8.7841500E-003  8.9426900E-005
 -9.6901700E-004  8.4958700E-003  8.4811200E-005
 -9.7799800E-004  8.1966700E-003  8.0011900E-005
 -9.8381400E-004  7.8871100E-003  7.5030700E-005
 -9.8659900E-004  7.5689300E-003  6.9869500E-005
 -9.8630600E-004  7.2425400E-003  6.4531500E-005
 -9.8302200E-004  6.9099000E-003  5.9019900E-005
 -9.7677600E-004  6.5712600E-003  5.3339800E-005
 -9.6764500E-004  6.2288700E-003  4.7496700E-005
 -9.5566700E-004  5.8827500E-003  4.1498300E-005
 -9.4098500E-004  5.5354400E-003  3.5354000E-005
 -9.2354900E-004  5.1867000E-003  2.9075100E-005