# vtk DataFile Version 3.0
MMH: CalculiX output 'object.frd' file to 'vtk' format
ASCII
DATASET UNSTRUCTURED_GRID
POINTS 3232 double
 6.00000000E-001 2.10000000E-001 0.00000000E+000
 6.00000000E-001 2.08667000E-001 0.00000000E+000
 6.00000000E-001 2.07333000E-001 0.00000000E+000
 6.00000000E-001 2.06000000E-001 0.00000000E+000
 6.00000000E-001 2.04667000E-001 0.00000000E+000
 6.00000000E-001 2.03333000E-001 0.00000000E+000
 6.00000000E-001 2.02000000E-001 0.00000000E+000
 6.00000000E-001 2.00667000E-001 0.00000000E+000
 6.00000000E-001 1.99333000E-001 0.00000000E+000
 6.00000000E-001 1.98000000E-001 0.00000000E+000
 6.00000000E-001 1.96667000E-001 0.00000000E+000
 6.00000000E-001 1.95333000E-001 0.00000000E+000
 6.00000000E-001 1.94000000E-001 0.00000000E+000
 6.00000000E-001 1.92667000E-001 0.00000000E+000
 6.00000000E-001 1.91333000E-001 0.00000000E+000
 6.00000000E-001 1.90000000E-001 0.00000000E+000
 5.96490000E-001 1.90000000E-001 0.00000000E+000
 5.92980000E-001 1.90000000E-001 0.00000000E+000
 5.89470000E-001 1.90000000E-001 0.00000000E+000
 5.85960000E-001 1.90000000E-001 0.00000000E+000
 5.82449000E-001 1.90000000E-001 0.00000000E+000
 5.78939000E-001 1.90000000E-001 0.00000000E+000
 5.75429000E-001 1.90000000E-001 0.00000000E+000
 5.71919000E-001 1.90000000E-001 0.00000000E+000
 5.68409000E-001 1.90000000E-001 0.00000000E+000
 5.64899000E-001 1.90000000E-001 0.00000000E+000
 5.61389000E-001 1.90000000E-001 0.00000000E+000
 5.57879000E-001 1.90000000E-001 0.00000000E+000
 5.54369000E-001 1.90000000E-001 0.00000000E+000
 5.50859000E-001 1.90000000E-001 0.00000000E+000
 5.47348000E-001 1.90000000E-001 0.00000000E+000
 5.43838000E-001 1.90000000E-001 0.00000000E+000
 5.40328000E-001 1.90000000E-001 0.00000000E+000
 5.36818000E-001 1.90000000E-001 0.00000000E+000
 5.33308000E-001 1.90000000E-001 0.00000000E+000
 5.29798000E-001 1.90000000E-001 0.00000000E+000
 5.26288000E-001 1.90000000E-001 0.00000000E+000
 5.22778000E-001 1.90000000E-001 0.00000000E+000
 5.19268000E-001 1.90000000E-001 0.00000000E+000
 5.15758000E-001 1.90000000E-001 0.00000000E+000
 5.12247000E-001 1.90000000E-001 0.00000000E+000
 5.08737000E-001 1.90000000E-001 0.00000000E+000
 5.05227000E-001 1.90000000E-001 0.00000000E+000
 5.01717000E-001 1.90000000E-001 0.00000000E+000
 4.98207000E-001 1.90000000E-001 0.00000000E+000
 4.94697000E-001 1.90000000E-001 0.00000000E+000
 4.91187000E-001 1.90000000E-001 0.00000000E+000
 4.87677000E-001 1.90000000E-001 0.00000000E+000
 4.84167000E-001 1.90000000E-001 0.00000000E+000
 4.80657000E-001 1.90000000E-001 0.00000000E+000
 4.77146000E-001 1.90000000E-001 0.00000000E+000
 4.73636000E-001 1.90000000E-001 0.00000000E+000
 4.70126000E-001 1.90000000E-001 0.00000000E+000
 4.66616000E-001 1.90000000E-001 0.00000000E+000
 4.63106000E-001 1.90000000E-001 0.00000000E+000
 4.59596000E-001 1.90000000E-001 0.00000000E+000
 4.56086000E-001 1.90000000E-001 0.00000000E+000
 4.52576000E-001 1.90000000E-001 0.00000000E+000
 4.49066000E-001 1.90000000E-001 0.00000000E+000
 4.45556000E-001 1.90000000E-001 0.00000000E+000
 4.42045000E-001 1.90000000E-001 0.00000000E+000
 4.38535000E-001 1.90000000E-001 0.00000000E+000
 4.35025000E-001 1.90000000E-001 0.00000000E+000
 4.31515000E-001 1.90000000E-001 0.00000000E+000
 4.28005000E-001 1.90000000E-001 0.00000000E+000
 4.24495000E-001 1.90000000E-001 0.00000000E+000
 4.20985000E-001 1.90000000E-001 0.00000000E+000
 4.17475000E-001 1.90000000E-001 0.00000000E+000
 4.13965000E-001 1.90000000E-001 0.00000000E+000
 4.10455000E-001 1.90000000E-001 0.00000000E+000
 4.06944000E-001 1.90000000E-001 0.00000000E+000
 4.03434000E-001 1.90000000E-001 0.00000000E+000
 3.99924000E-001 1.90000000E-001 0.00000000E+000
 3.96414000E-001 1.90000000E-001 0.00000000E+000
 3.92904000E-001 1.90000000E-001 0.00000000E+000
 3.89394000E-001 1.90000000E-001 0.00000000E+000
 3.85884000E-001 1.90000000E-001 0.00000000E+000
 3.82374000E-001 1.90000000E-001 0.00000000E+000
 3.78864000E-001 1.90000000E-001 0.00000000E+000
 3.75353000E-001 1.90000000E-001 0.00000000E+000
 3.71843000E-001 1.90000000E-001 0.00000000E+000
 3.68333000E-001 1.90000000E-001 0.00000000E+000
 3.64823000E-001 1.90000000E-001 0.00000000E+000
 3.61313000E-001 1.90000000E-001 0.00000000E+000
 3.57803000E-001 1.90000000E-001 0.00000000E+000
 3.54293000E-001 1.90000000E-001 0.00000000E+000
 3.50783000E-001 1.90000000E-001 0.00000000E+000
 3.47273000E-001 1.90000000E-001 0.00000000E+000
 3.43763000E-001 1.90000000E-001 0.00000000E+000
 3.40252000E-001 1.90000000E-001 0.00000000E+000
 3.36742000E-001 1.90000000E-001 0.00000000E+000
 3.33232000E-001 1.90000000E-001 0.00000000E+000
 3.29722000E-001 1.90000000E-001 0.00000000E+000
 3.26212000E-001 1.90000000E-001 0.00000000E+000
 3.22702000E-001 1.90000000E-001 0.00000000E+000
 3.19192000E-001 1.90000000E-001 0.00000000E+000
 3.15682000E-001 1.90000000E-001 0.00000000E+000
 3.12172000E-001 1.90000000E-001 0.00000000E+000
 3.08661000E-001 1.90000000E-001 0.00000000E+000
 3.05151000E-001 1.90000000E-001 0.00000000E+000
 3.01641000E-001 1.90000000E-001 0.00000000E+000
 2.98131000E-001 1.90000000E-001 0.00000000E+000
 2.94621000E-001 1.90000000E-001 0.00000000E+000
 2.91111000E-001 1.90000000E-001 0.00000000E+000
 2.87601000E-001 1.90000000E-001 0.00000000E+000
 2.84091000E-001 1.90000000E-001 0.00000000E+000
 2.80581000E-001 1.90000000E-001 0.00000000E+000
 2.77071000E-001 1.90000000E-001 0.00000000E+000
 2.73560000E-001 1.90000000E-001 0.00000000E+000
 2.70050000E-001 1.90000000E-001 0.00000000E+000
 2.66540000E-001 1.90000000E-001 0.00000000E+000
 2.63030000E-001 1.90000000E-001 0.00000000E+000
 2.59520000E-001 1.90000000E-001 0.00000000E+000
 2.56010000E-001 1.90000000E-001 0.00000000E+000
 2.52500000E-001 1.90000000E-001 0.00000000E+000
 2.48990000E-001 1.90000000E-001 0.00000000E+000
 2.48990000E-001 1.91333000E-001 0.00000000E+000
 2.48990000E-001 1.92667000E-001 0.00000000E+000
 2.48990000E-001 1.94000000E-001 0.00000000E+000
 2.48990000E-001 1.95333000E-001 0.00000000E+000
 2.48990000E-001 1.96667000E-001 0.00000000E+000
 2.48990000E-001 1.98000000E-001 0.00000000E+000
 2.48990000E-001 1.99333000E-001 0.00000000E+000
 2.48990000E-001 2.00667000E-001 0.00000000E+000
 2.48990000E-001 2.02000000E-001 0.00000000E+000
 2.48990000E-001 2.03333000E-001 0.00000000E+000
 2.48990000E-001 2.04667000E-001 0.00000000E+000
 2.48990000E-001 2.06000000E-001 0.00000000E+000
 2.48990000E-001 2.07333000E-001 0.00000000E+000
 2.48990000E-001 2.08667000E-001 0.00000000E+000
 2.48990000E-001 2.10000000E-001 0.00000000E+000
 2.52500000E-001 2.10000000E-001 0.00000000E+000
 2.56010000E-001 2.10000000E-001 0.00000000E+000
 2.59520000E-001 2.10000000E-001 0.00000000E+000
 2.63030000E-001 2.10000000E-001 0.00000000E+000
 2.66540000E-001 2.10000000E-001 0.00000000E+000
 2.70050000E-001 2.10000000E-001 0.00000000E+000
 2.73560000E-001 2.10000000E-001 0.00000000E+000
 2.77071000E-001 2.10000000E-001 0.00000000E+000
 2.80581000E-001 2.10000000E-001 0.00000000E+000
 2.84091000E-001 2.10000000E-001 0.00000000E+000
 2.87601000E-001 2.10000000E-001 0.00000000E+000
 2.91111000E-001 2.10000000E-001 0.00000000E+000
 2.94621000E-001 2.10000000E-001 0.00000000E+000
 2.98131000E-001 2.10000000E-001 0.00000000E+000
 3.01641000E-001 2.10000000E-001 0.00000000E+000
 3.05151000E-001 2.10000000E-001 0.00000000E+000
 3.08661000E-001 2.10000000E-001 0.00000000E+000
 3.12172000E-001 2.10000000E-001 0.00000000E+000
 3.15682000E-001 2.10000000E-001 0.00000000E+000
 3.19192000E-001 2.10000000E-001 0.00000000E+000
 3.22702000E-001 2.10000000E-001 0.00000000E+000
 3.26212000E-001 2.10000000E-001 0.00000000E+000
 3.29722000E-001 2.10000000E-001 0.00000000E+000
 3.33232000E-001 2.10000000E-001 0.00000000E+000
 3.36742000E-001 2.10000000E-001 0.00000000E+000
 3.40252000E-001 2.10000000E-001 0.00000000E+000
 3.43763000E-001 2.10000000E-001 0.00000000E+000
 3.47273000E-001 2.10000000E-001 0.00000000E+000
 3.50783000E-001 2.10000000E-001 0.00000000E+000
 3.54293000E-001 2.10000000E-001 0.00000000E+000
 3.57803000E-001 2.10000000E-001 0.00000000E+000
 3.61313000E-001 2.10000000E-001 0.00000000E+000
 3.64823000E-001 2.10000000E-001 0.00000000E+000
 3.68333000E-001 2.10000000E-001 0.00000000E+000
 3.71843000E-001 2.10000000E-001 0.00000000E+000
 3.75353000E-001 2.10000000E-001 0.00000000E+000
 3.78864000E-001 2.10000000E-001 0.00000000E+000
 3.82374000E-001 2.10000000E-001 0.00000000E+000
 3.85884000E-001 2.10000000E-001 0.00000000E+000
 3.89394000E-001 2.10000000E-001 0.00000000E+000
 3.92904000E-001 2.10000000E-001 0.00000000E+000
 3.96414000E-001 2.10000000E-001 0.00000000E+000
 3.99924000E-001 2.10000000E-001 0.00000000E+000
 4.03434000E-001 2.10000000E-001 0.00000000E+000
 4.06944000E-001 2.10000000E-001 0.00000000E+000
 4.10455000E-001 2.10000000E-001 0.00000000E+000
 4.13965000E-001 2.10000000E-001 0.00000000E+000
 4.17475000E-001 2.10000000E-001 0.00000000E+000
 4.20985000E-001 2.10000000E-001 0.00000000E+000
 4.24495000E-001 2.10000000E-001 0.00000000E+000
 4.28005000E-001 2.10000000E-001 0.00000000E+000
 4.31515000E-001 2.10000000E-001 0.00000000E+000
 4.35025000E-001 2.10000000E-001 0.00000000E+000
 4.38535000E-001 2.10000000E-001 0.00000000E+000
 4.42045000E-001 2.10000000E-001 0.00000000E+000
 4.45556000E-001 2.10000000E-001 0.00000000E+000
 4.49066000E-001 2.10000000E-001 0.00000000E+000
 4.52576000E-001 2.10000000E-001 0.00000000E+000
 4.56086000E-001 2.10000000E-001 0.00000000E+000
 4.59596000E-001 2.10000000E-001 0.00000000E+000
 4.63106000E-001 2.10000000E-001 0.00000000E+000
 4.66616000E-001 2.10000000E-001 0.00000000E+000
 4.70126000E-001 2.10000000E-001 0.00000000E+000
 4.73636000E-001 2.10000000E-001 0.00000000E+000
 4.77146000E-001 2.10000000E-001 0.00000000E+000
 4.80657000E-001 2.10000000E-001 0.00000000E+000
 4.84167000E-001 2.10000000E-001 0.00000000E+000
 4.87677000E-001 2.10000000E-001 0.00000000E+000
 4.91187000E-001 2.10000000E-001 0.00000000E+000
 4.94697000E-001 2.10000000E-001 0.00000000E+000
[...]
POINT_DATA 3232
VECTORS DISP double
 -1.1983700E-003 -3.1382700E-002  2.5868300E-005
 -1.4967900E-003 -3.1349000E-002  2.5799100E-005
 -1.7964300E-003 -3.1314800E-002  2.5588000E-005
 -2.0953400E-003 -3.1280700E-002  2.5252700E-005
 -2.3945500E-003 -3.1246600E-002  2.4817900E-005
 -2.6935400E-003 -3.1212500E-002  2.4302300E-005
 -2.9925900E-003 -3.1178400E-002  2.3730100E-005
 -3.2915500E-003 -3.1144400E-002  2.3125700E-005
 -3.5905500E-003 -3.1110400E-002  2.2515100E-005
 -3.8894800E-003 -3.1076400E-002  2.1924400E-005
 -4.1883800E-003 -3.1042400E-002  2.1378700E-005
 -4.4873100E-003 -3.1008400E-002  2.0902000E-005
 -4.7861200E-003 -3.0974500E-002  2.0514500E-005
 -5.0850500E-003 -3.0940600E-002  2.0235200E-005
 -5.3835200E-003 -3.0906700E-002  2.0071200E-005
 -5.6829600E-003 -3.0873400E-002  2.0016800E-005
 -5.5933300E-003 -3.0084900E-002  1.9956300E-005
 -5.5045600E-003 -2.9298600E-002  1.9804600E-005
 -5.4148700E-003 -2.8510600E-002  1.9571200E-005
 -5.3254200E-003 -2.7723800E-002  1.9248600E-005
 -5.2354100E-003 -2.6936300E-002  1.8834900E-005
 -5.1453800E-003 -2.6149800E-002  1.8319200E-005
 -5.0548800E-003 -2.5363000E-002  1.7694100E-005
 -4.9641800E-003 -2.4577100E-002  1.6948000E-005
 -4.8729800E-003 -2.3791500E-002  1.6071800E-005
 -4.7814600E-003 -2.3007000E-002  1.5054300E-005
 -4.6894000E-003 -2.2223200E-002  1.3887000E-005
 -4.5969000E-003 -2.1440900E-002  1.2560000E-005
 -4.5038200E-003 -2.0660000E-002  1.1066500E-005
 -4.4102100E-003 -1.9881100E-002  9.3991400E-006
 -4.3159600E-003 -1.9104300E-002  7.5535500E-006
 -4.2211300E-003 -1.8330300E-002  5.5259200E-006
 -4.1256300E-003 -1.7559200E-002  3.3149400E-006
 -4.0295300E-003 -1.6791900E-002  9.2100400E-007
 -3.9327400E-003 -1.6028400E-002 -1.6537500E-006
 -3.8353900E-003 -1.5269700E-002 -4.4043400E-006
 -3.7373600E-003 -1.4516000E-002 -7.3248700E-006
 -3.6388200E-003 -1.3768400E-002 -1.0405900E-005
 -3.5396700E-003 -1.3027200E-002 -1.3637400E-005
 -3.4401000E-003 -1.2293200E-002 -1.7005900E-005
 -3.3400400E-003 -1.1567100E-002 -2.0497200E-005
 -3.2396600E-003 -1.0849700E-002 -2.4094700E-005
 -3.1389700E-003 -1.0141800E-002 -2.7780100E-005
 -3.0381000E-003 -9.4439500E-003 -3.1534000E-005
 -2.9371200E-003 -8.7572400E-003 -3.5334800E-005
 -2.8361200E-003 -8.0822300E-003 -3.9160900E-005
 -2.7352500E-003 -7.4199400E-003 -4.2988500E-005
 -2.6345600E-003 -6.7709500E-003 -4.6794100E-005
 -2.5342300E-003 -6.1362700E-003 -5.0552800E-005
 -2.4343100E-003 -5.5165100E-003 -5.4240100E-005
 -2.3349800E-003 -4.9125500E-003 -5.7830900E-005
 -2.2363100E-003 -4.3251200E-003 -6.1300600E-005
 -2.1384500E-003 -3.7548800E-003 -6.4625100E-005
 -2.0415100E-003 -3.2026500E-003 -6.7780400E-005
 -1.9455900E-003 -2.6689100E-003 -7.0744500E-005
 -1.8508200E-003 -2.1545100E-003 -7.3495200E-005
 -1.7572800E-003 -1.6597700E-003 -7.6013000E-005
 -1.6651100E-003 -1.1854700E-003 -7.8278600E-005
 -1.5743500E-003 -7.3186900E-004 -8.0275600E-005
 -1.4851500E-003 -2.9957100E-004 -8.1988700E-005
 -1.3975300E-003  1.1116000E-004 -8.3404900E-005
 -1.3116100E-003  4.9997600E-004 -8.4513300E-005
 -1.2274200E-003  8.6658100E-004 -8.5305000E-005
 -1.1450500E-003  1.2108900E-003 -8.5773700E-005
 -1.0645400E-003  1.5326000E-003 -8.5914500E-005
 -9.8592800E-004  1.8318600E-003 -8.5725800E-005
 -9.0927300E-004  2.1084200E-003 -8.5207000E-005
 -8.3457100E-004  2.3625600E-003 -8.4360800E-005
 -7.6190300E-004  2.5942100E-003 -8.3190600E-005
 -6.9123000E-004  2.8036700E-003 -8.1703000E-005
 -6.2264100E-004  2.9911400E-003 -7.9905200E-005
 -5.5608200E-004  3.1568500E-003 -7.7806800E-005
 -4.9163400E-004  3.3013000E-003 -7.5418900E-005
 -4.2925100E-004  3.4246600E-003 -7.2753400E-005
 -3.6899500E-004  3.5277200E-003 -6.9824500E-005
 -3.1084000E-004  3.6105700E-003 -6.6646000E-005
 -2.5482300E-004  3.6742300E-003 -6.3234400E-005
 -2.0095000E-004  3.7188300E-003 -5.9605200E-005
 -1.4923200E-004  3.7454600E-003 -5.5776200E-005
 -9.9702000E-005  3.7544400E-003 -5.1764500E-005
 -5.2359900E-005  3.7467600E-003 -4.7588500E-005
 -7.2492300E-006  3.7230200E-003 -4.3266500E-005
  3.5616500E-005  3.6840700E-003 -3.8817000E-005
  7.6209700E-005  3.6307900E-003 -3.4259400E-005
  1.1447500E-004  3.5639000E-003 -2.9611700E-005
  1.5043000E-004  3.4844600E-003 -2.4894200E-005
  1.8395000E-004  3.3932000E-003 -2.0124300E-005
  2.1512300E-004  3.2911800E-003 -1.5322800E-005
  2.4373900E-004  3.1793000E-003 -1.0506900E-005
  2.6996600E-004  3.0584100E-003 -5.6972200E-006
  2.9351000E-004  2.9298000E-003 -9.1158900E-007
  3.1461400E-004  2.7939400E-003  3.8299800E-006
  3.3292000E-004  2.6525600E-003  8.5081600E-006
  3.4872500E-004  2.5056900E-003  1.3103100E-005
  3.6163400E-004  2.3555600E-003  1.7593600E-005
  3.7197600E-004  2.2017500E-003  2.1959000E-005
  3.7934800E-004  2.0468900E-003  2.6175200E-005
  3.8409000E-004  1.8902300E-003  3.0218700E-005
  3.8581100E-004  1.7346400E-003  3.4062000E-005
  3.8485500E-004  1.5792000E-003  3.7675400E-005
  3.8085200E-004  1.4269100E-003  4.1025800E-005
  3.7414900E-004  1.2766700E-003  4.4073500E-005
  3.6440800E-004  1.1316600E-003  4.6775900E-005
  3.5196000E-004  9.9048700E-004  4.9077400E-005
  3.3654900E-004  8.5670900E-004  5.0919800E-005
  3.1840300E-004  7.2829700E-004  5.2223000E-005
  2.9749800E-004  6.0966400E-004  5.2903300E-005
  2.7372900E-004  4.9749500E-004  5.2842500E-005
  2.4766100E-004  3.9784800E-004  5.1916100E-005
  2.1831900E-004  3.0514300E-004  4.9944300E-005
  1.8763500E-004  2.2831100E-004  4.6737900E-005
  1.5259900E-004  1.5792100E-004  4.2008400E-005
  1.1838500E-004  1.0819500E-004  3.5470400E-005
  7.7612000E-005  6.1872000E-005  2.6634600E-005
  4.4846900E-005  4.4293500E-005  1.5172100E-005
  0.0000000E+000  0.0000000E+000  0.0000000E+000
  0.0000000E+000  0.0000000E+000  0.0000000E+000
  0.0000000E+000  0.0000000E+000  0.0000000E+000
  0.0000000E+000  0.0000000E+000  0.0000000E+000
  0.0000000E+000  0.0000000E+000  0.0000000E+000
  0.0000000E+000  0.0000000E+000  0.0000000E+000
  0.0000000E+000  0.0000000E+000  0.0000000E+000
  0.0000000E+000  0.0000000E+000  0.0000000E+000
  0.0000000E+000  0.0000000E+000  0.0000000E+000
  0.0000000E+000  0.0000000E+000  0.0000000E+000
  0.0000000E+000  0.0000000E+000  0.0000000E+000
  0.0000000E+000  0.0000000E+000  0.0000000E+000
  0.0000000E+000  0.0000000E+000  0.0000000E+000
  0.0000000E+000  0.0000000E+000  0.0000000E+000
  0.0000000E+000  0.0000000E+000  0.0000000E+000
  0.0000000E+000  0.0000000E+000  0.0000000E+000
 -4.7785300E-005  4.8807300E-005 -9.9461200E-006
 -8.0580900E-005  6.5605800E-005 -1.6397800E-005
 -1.2346100E-004  1.1206700E-004 -2.0469600E-005
 -1.5926900E-004  1.6030300E-004 -2.2450200E-005
 -1.9696400E-004  2.2999800E-004 -2.2830000E-005
 -2.3039200E-004  3.0495400E-004 -2.1883200E-005
 -2.6323000E-004  3.9675500E-004 -1.9899000E-005
 -2.9313200E-004  4.9433000E-004 -1.7064900E-005
 -3.2135900E-004  6.0557700E-004 -1.3560100E-005
 -3.4718300E-004  7.2215300E-004 -9.5107800E-006
 -3.7075700E-004  8.4970000E-004 -5.0326700E-006
 -3.9209300E-004  9.8167900E-004 -2.1159400E-007
 -4.1084100E-004  1.1220800E-003  4.8753000E-006
 -4.2733500E-004  1.2657700E-003  1.0169100E-005
 -4.4102000E-004  1.4153800E-003  1.5616600E-005
 -4.5234600E-004  1.5669600E-003  2.1176800E-005
 -4.6071300E-004  1.7220000E-003  2.6811400E-005
 -4.6657000E-004  1.8775100E-003  3.2491500E-005
 -4.6936700E-004  2.0340800E-003  3.8188100E-005
 -4.6948900E-004  2.1894600E-003  4.3880500E-005
 -4.6649100E-004  2.3436000E-003  4.9545600E-005
 -4.6066200E-004  2.4946900E-003  5.5167600E-005
 -4.5168800E-004  2.6423800E-003  6.0728000E-005
 -4.3976300E-004  2.7849900E-003  6.6213700E-005
 -4.2469300E-004  2.9221600E-003  7.1609400E-005
 -4.0661000E-004  3.0521400E-003  7.6903300E-005
 -3.8541200E-004  3.1747000E-003  8.2082800E-005
 -3.6120800E-004  3.2879400E-003  8.7136400E-005
 -3.3395400E-004  3.3918100E-003  9.2053700E-005
 -3.0378200E-004  3.4843100E-003  9.6823000E-005
 -2.7066600E-004  3.5654600E-003  1.0143600E-004
 -2.3480200E-004  3.6333600E-003  1.0588000E-004
 -1.9616100E-004  3.6879000E-003  1.1014700E-004
 -1.5501200E-004  3.7274900E-003  1.1422700E-004
 -1.1133700E-004  3.7517200E-003  1.1811100E-004
 -6.5452800E-005  3.7594700E-003  1.2178900E-004
 -1.7386000E-005  3.7499500E-003  1.2525200E-004
  3.2531500E-005  3.7225700E-003  1.2849300E-004
  8.4195400E-005  3.6761900E-003  1.3150000E-004
  1.3729600E-004  3.6106400E-003  1.3426700E-004
  1.9162000E-004  3.5246600E-003  1.3678500E-004
  2.4690500E-004  3.4182600E-003  1.3904700E-004
  3.0283100E-004  3.2903300E-003  1.4104500E-004
  3.5916800E-004  3.1408100E-003  1.4277300E-004
  4.1552800E-004  2.9690300E-003  1.4422400E-004
  4.7167800E-004  2.7746200E-003  1.4539300E-004
  5.2721800E-004  2.5575000E-003  1.4627600E-004
  5.8187100E-004  2.3170000E-003  1.4686700E-004
  6.3528100E-004  2.0535500E-003  1.4716600E-004
  6.8709400E-004  1.7663100E-003  1.4716900E-004
  7.3703900E-004  1.4560700E-003  1.4687900E-004
  7.8468900E-004  1.1220500E-003  1.4629300E-004
  8.2984900E-004  7.6509800E-004  1.4541700E-004
  8.7207000E-004  3.8481000E-004  1.4425200E-004
  9.1119300E-004 -1.8161100E-005  1.4280600E-004
  9.4681500E-004 -4.4366900E-004  1.4108600E-004
  9.7877000E-004 -8.9137600E-004  1.3909900E-004
  1.0067600E-003 -1.3605600E-003  1.3685800E-004
  1.0305700E-003 -1.8511600E-003  1.3437300E-004
  1.0500600E-003 -2.3620200E-003  1.3166000E-004
  1.0649700E-003 -2.8931800E-003  1.2873100E-004
  1.0752800E-003 -3.4432900E-003  1.2560600E-004
  1.0807500E-003 -4.0122500E-003  1.2230000E-004
  1.0814300E-003 -4.5988200E-003  1.1883300E-004
  1.0771500E-003 -5.2025600E-003  1.1522400E-004
  1.0679900E-003 -5.8224600E-003  1.1149300E-004
  1.0538700E-003 -6.4577500E-003  1.0766300E-004
  1.0348800E-003 -7.1076600E-003  1.0375300E-004
  1.0110700E-003 -7.7711500E-003  9.9785400E-005
  9.8250400E-004 -8.4476200E-003  9.5780500E-005
  9.4933000E-004 -9.1359200E-003  9.1760400E-005
  9.1162200E-004 -9.8355100E-003  8.7744700E-005
  8.6959900E-004 -1.0545300E-002  8.3753900E-005
  8.2335600E-004 -1.1264600E-002  7.9807000E-005
  7.7314100E-004 -1.1992600E-002  7.5922200E-005
  7.1909300E-004 -1.2728500E-002  7.2116900E-005
  6.6145900E-004 -1.3471500E-002  6.8406700E-005
  6.0042500E-004 -1.4221000E-002  6.4806900E-005
  5.3622100E-004 -1.4976400E-002  6.1330300E-005
  4.6906800E-004 -1.5736800E-002  5.7989400E-005
  3.9917900E-004 -1.6501800E-002  5.4794100E-005
  3.2679100E-004 -1.7270700E-002  5.1753600E-005
  2.5210200E-004 -1.8043100E-002  4.8875200E-005
  1.7534900E-004 -1.8818400E-002  4.6164600E-005
  9.6712700E-005 -1.9596300E-002  4.3626300E-005
  1.6417800E-005 -2.0376300E-002  4.1263000E-005
 -6.5370300E-005 -2.1158100E-002  3.9076200E-005
 -1.4845000E-004 -2.1941300E-002  3.7066100E-005
 -2.3267600E-004 -2.2725700E-002  3.5231900E-005
 -3.1787300E-004 -2.3511000E-002  3.3571300E-005
 -4.0391300E-004 -2.4297200E-002  3.2082200E-005
 -4.9065900E-004 -2.5083700E-002  3.0760800E-005
 -5.7799000E-004 -2.5870800E-002  2.9604000E-005
 -6.6582500E-004 -2.6657900E-002  2.8607900E-005
 -7.5401000E-004 -2.7445500E-002  2.7769900E-005
 -8.4257800E-004 -2.8232700E-002  2.7086700E-005
 -9.3122300E-004 -2.9020500E-002  2.6556800E-005
 -1.0202500E-003 -2.9807600E-002  2.6177900E-005
 -1.1088700E-003 -3.0595700E-002  2.5946600E-005
 -1.4083600E-003 -3.0561200E-002  2.5874500E-005
 -1.3190800E-003 -2.9773800E-002  2.6101400E-005
 -1.2303600E-003 -2.8986200E-002  2.6475300E-005
 -1.1415000E-003 -2.8198800E-002  2.6995800E-005
 -1.0529700E-003 -2.7411200E-002  2.7666400E-005
 -9.6464500E-004 -2.6623800E-002  2.8488300E-005
 -8.7668300E-004 -2.5836400E-002  2.9464700E-005
 -7.8915900E-004 -2.5049400E-002  3.0598300E-005
 -7.0214300E-004 -2.4262700E-002  3.1892600E-005
 -6.1578300E-004 -2.3476600E-002  3.3350800E-005
 -5.3014800E-004 -2.2691200E-002  3.4976200E-005
 -4.4541800E-004 -2.1906700E-002  3.6771100E-005
 -3.6168800E-004 -2.1123400E-002  3.8737400E-005
 -2.7915200E-004 -2.0341600E-002  4.0875900E-005
 -1.9794000E-004 -1.9561500E-002  4.3186300E-005
 -1.1825600E-004 -1.8783600E-002  4.5667000E-005
 -4.0258700E-005 -1.8008200E-002  4.8315400E-005
  3.5838000E-005 -1.7235800E-002  5.1127100E-005
  1.0985600E-004 -1.6466800E-002  5.4096300E-005
  1.8157000E-004 -1.5701900E-002  5.7216000E-005
  2.5079600E-004 -1.4941500E-002  6.0477300E-005
  3.1730000E-004 -1.4186300E-002  6.3870100E-005
  3.8090000E-004 -1.3436900E-002  6.7382700E-005
  4.4135800E-004 -1.2694000E-002  7.1002200E-005
  4.9850800E-004 -1.1958200E-002  7.4714000E-005
  5.5211700E-004 -1.1230500E-002  7.8502700E-005
  6.0202800E-004 -1.0511400E-002  8.2351400E-005
  6.4804600E-004 -9.8018900E-003  8.6242500E-005
  6.9001600E-004 -9.1027400E-003  9.0157300E-005
  7.2779900E-004 -8.4147100E-003  9.4076300E-005
  7.6123800E-004 -7.7387700E-003  9.7979700E-005
  7.9027100E-004 -7.0756500E-003  1.0184700E-004
  8.1474400E-004 -6.4263100E-003  1.0565700E-004
  8.3467300E-004 -5.7915500E-003  1.0939100E-004
  8.4992700E-004 -5.1722000E-003  1.1302600E-004
  8.6058200E-004 -4.5691700E-003  1.1654200E-004
  8.6656800E-004 -3.9831100E-003  1.1992100E-004
  8.6798900E-004 -3.4150300E-003  1.2314300E-004
  8.6487300E-004 -2.8653900E-003  1.2619000E-004
  8.5732000E-004 -2.3352200E-003  1.2904400E-004
  8.4548500E-004 -1.8248700E-003  1.3168900E-004
  8.2944200E-004 -1.3352400E-003  1.3411200E-004
  8.0947400E-004 -8.6667100E-004  1.3629800E-004
  7.8564100E-004 -4.1983700E-004  1.3823600E-004
  7.5831600E-004  4.8966000E-006  1.3991600E-004
  7.2758200E-004  4.0716200E-004  1.4132800E-004
  6.9384100E-004  7.8651100E-004  1.4246700E-004
  6.5724600E-004  1.1429200E-003  1.4332600E-004
  6.1816700E-004  1.4759000E-003  1.4390200E-004
  5.7686100E-004  1.7857100E-003  1.4419200E-004
  5.3362000E-004  2.0719100E-003  1.4419500E-004
  4.8881800E-004  2.3349300E-003  1.4391100E-004
  4.4265200E-004  2.5745100E-003  1.4334200E-004
  3.9558500E-004  2.7911200E-003  1.4249100E-004
  3.4774900E-004  2.9847900E-003  1.4136000E-004
  2.9963200E-004  3.1559400E-003  1.3995600E-004
  2.5135100E-004  3.3049400E-003  1.3828100E-004
  2.0334900E-004  3.4321200E-003  1.3634400E-004
  1.5577700E-004  3.5381500E-003  1.3414900E-004
  1.0898100E-004  3.6233500E-003  1.3170400E-004
  6.3171500E-005  3.6885800E-003  1.2901700E-004
  1.8570200E-005  3.7342400E-003  1.2609500E-004
 -2.4551000E-005  3.7612500E-003  1.2294700E-004
 -6.6082400E-005  3.7702000E-003  1.1958000E-004
 -1.0572900E-004  3.7619200E-003  1.1600300E-004
 -1.4345000E-004  3.7373100E-003  1.1222500E-004
 -1.7897900E-004  3.6970300E-003  1.0825400E-004
 -2.1229100E-004  3.6422700E-003  1.0410000E-004
 -2.4320100E-004  3.5735400E-003  9.9772700E-005
 -2.7165300E-004  3.4922700E-003  9.5280100E-005
 -2.9757600E-004  3.3988500E-003  9.0632700E-005
 -3.2086000E-004  3.2948900E-003  8.5839900E-005
 -3.4155400E-004  3.1807100E-003  8.0912400E-005
 -3.5949900E-004  3.0580000E-003  7.5860500E-005
 -3.7483600E-004  2.9271000E-003  7.0695400E-005
 -3.8738800E-004  2.7897100E-003  6.5428700E-005
 -3.9734300E-004  2.6461800E-003  6.0072900E-005
 -4.0455000E-004  2.4982400E-003  5.4641400E-005
 -4.0919000E-004  2.3461600E-003  4.9148600E-005
 -4.1118100E-004  2.1918200E-003  4.3610800E-005
 -4.1064600E-004  2.0352900E-003  3.8045200E-005
 -4.0760900E-004  1.8787000E-003  3.2472200E-005
 -4.0210100E-004  1.7217300E-003  2.6914100E-005
 -3.9427000E-004  1.5670000E-003  2.1397300E-005
 -3.8402100E-004  1.4135300E-003  1.5951900E-005
 -3.7166500E-004  1.2646700E-003  1.0613300E-005
 -3.5691900E-004  1.1185700E-003  5.4235400E-006
 -3.4033800E-004  9.7948100E-004  4.3247800E-007
 -3.2131100E-004  8.4445300E-004 -4.2996900E-006
 -3.0084200E-004  7.1893800E-004 -8.7008700E-006
 -2.7768400E-004  5.9852200E-004 -1.2682900E-005
 -2.5372900E-004  4.9025500E-004 -1.6138700E-005
 -2.2645300E-004  3.8776000E-004 -1.8936900E-005
 -1.9955000E-004  3.0032100E-004 -2.0914700E-005
 -1.6791200E-004  2.1878900E-004 -2.1873700E-005
 -1.3891900E-004  1.5569800E-004 -2.1558000E-005
 -1.0228400E-004  9.8110700E-005 -1.9672400E-005
 -7.3160300E-005  6.2382200E-005 -1.5803900E-005
 -3.1141600E-005  3.1610000E-005 -9.6201700E-006
 -1.7071200E-003 -3.0527200E-002  2.5661600E-005
 -1.6183700E-003 -2.9739700E-002  2.5879200E-005
 -1.5292200E-003 -2.8952200E-002  2.6235800E-005
 -1.4405300E-003 -2.8164600E-002  2.6729900E-005
 -1.3517900E-003 -2.7377100E-002  2.7363800E-005
 -1.2634200E-003 -2.6589600E-002  2.8139500E-005
 -1.1752700E-003 -2.5802200E-002  2.9059400E-005
 -1.0875300E-003 -2.5015100E-002  3.0126300E-005
 -1.0002400E-003 -2.4228400E-002  3.1343000E-005
 -9.1350700E-004 -2.3442300E-002  3.2712500E-005
 -8.2744500E-004 -2.2656800E-002  3.4237300E-005
 -7.4214800E-004 -2.1872300E-002  3.5919500E-005
 -6.5777400E-004 -2.1089000E-002  3.7760600E-005
 -5.7443300E-004 -2.0307100E-002  3.9761100E-005
 -4.9230300E-004 -1.9527000E-002  4.1920400E-005
 -4.1151900E-004 -1.8749100E-002  4.4237000E-005
 -3.3227400E-004 -1.7973700E-002  4.6708000E-005
 -2.5472400E-004 -1.7201400E-002  4.9329300E-005
 -1.7907200E-004 -1.6432500E-002  5.2095600E-005
 -1.0548900E-004 -1.5667600E-002  5.4999900E-005
 -3.4191900E-005 -1.4907400E-002  5.8034200E-005
  3.4652600E-005 -1.4152300E-002  6.1188800E-005
  1.0081000E-004 -1.3403100E-002  6.4453100E-005
  1.6412900E-004 -1.2660400E-002  6.7814700E-005
  2.2437000E-004 -1.1924900E-002  7.1260500E-005
  2.8139300E-004 -1.1197400E-002  7.4776000E-005
  3.3497100E-004 -1.0478700E-002  7.8345800E-005
  3.8497700E-004 -9.7695100E-003  8.1953500E-005
  4.3122400E-004 -9.0707400E-003  8.5581900E-005
  4.7357600E-004 -8.3832000E-003  8.9213200E-005
  5.1192100E-004 -7.7077300E-003  9.2828900E-005
  5.4610400E-004 -7.0451700E-003  9.6410500E-005
  5.7610700E-004 -6.3964100E-003  9.9938900E-005
  6.0176300E-004 -5.7622500E-003  1.0339500E-004
  6.2314200E-004 -5.1435900E-003  1.0676000E-004
  6.4009400E-004 -4.5411800E-003  1.1001600E-004
  6.5274600E-004 -3.9559200E-003  1.1314400E-004
  6.6101500E-004 -3.3884800E-003  1.1612700E-004
  6.6503900E-004 -2.8397100E-003  1.1894900E-004
  6.6485200E-004 -2.3102200E-003  1.2159300E-004
  6.6055400E-004 -1.8007500E-003  1.2404500E-004
  6.5233400E-004 -1.3118600E-003  1.2629200E-004
  6.4023600E-004 -8.4414800E-004  1.2832100E-004
  6.2459100E-004 -3.9810900E-004  1.3012200E-004
  6.0540900E-004  2.5830700E-005  1.3168500E-004
  5.8311100E-004  4.2724600E-004  1.3300400E-004
  5.5773100E-004  8.0588100E-004  1.3407000E-004
  5.2969800E-004  1.1614100E-003  1.3487900E-004
  4.9913300E-004  1.4937500E-003  1.3542800E-004
  4.6639500E-004  1.8026900E-003  1.3571400E-004
  4.3174100E-004  2.0883000E-003  1.3573600E-004
  3.9541200E-004  2.3505100E-003  1.3549500E-004
  3.5780400E-004  2.5895100E-003  1.3499100E-004
  3.1904200E-004  2.8054000E-003  1.3422700E-004
  2.7961000E-004  2.9984900E-003  1.3320600E-004
  2.3957300E-004  3.1690300E-003  1.3193200E-004
  1.9941900E-004  3.3174400E-003  1.3041000E-004
  1.5921900E-004  3.4441100E-003  1.2864400E-004
  1.1938500E-004  3.5495600E-003  1.2664100E-004
  8.0055900E-005  3.6343200E-003  1.2440500E-004
  4.1502900E-005  3.6990100E-003  1.2194600E-004
  3.9657900E-006  3.7442500E-003  1.1926700E-004
 -3.2440500E-005  3.7707900E-003  1.1637800E-004
 -6.7395500E-005  3.7792900E-003  1.1328500E-004
 -1.0090400E-004  3.7706300E-003  1.0999600E-004
 -1.3262300E-004  3.7455200E-003  1.0651800E-004
 -1.6261400E-004  3.7049500E-003  1.0286000E-004
 -1.9057800E-004  3.6496100E-003  9.9028300E-005
 -2.1656700E-004  3.5806600E-003  9.5032200E-005
 -2.4038700E-004  3.4987600E-003  9.0880100E-005
 -2.6203200E-004  3.4051600E-003  8.6580000E-005
 -2.8143600E-004  3.3005100E-003  8.2141200E-005
 -2.9853100E-004  3.1861800E-003  7.7572500E-005
 -3.1335900E-004  3.0627200E-003  7.2883800E-005
 -3.2582100E-004  2.9316800E-003  6.8084700E-005
 -3.3600900E-004  2.7934900E-003  6.3185900E-005
 -3.4385900E-004  2.6498200E-003  5.8198800E-005
 -3.4943600E-004  2.5009900E-003  5.3135400E-005