# vtk DataFile Version 3.0
MMH: CalculiX output 'object.frd' file to 'vtk' format
ASCII
DATASET UNSTRUCTURED_GRID
POINTS 3232 double
 6.00000000E-001 2.10000000E-001 0.00000000E+000
 6.00000000E-001 2.08667000E-001 0.00000000E+000
 6.00000000E-001 2.07333000E-001 0.00000000E+000
 6.00000000E-001 2.06000000E-001 0.00000000E+000
 6.00000000E-001 2.04667000E-001 0.00000000E+000
 6.00000000E-001 2.03333000E-001 0.00000000E+000
 6.00000000E-001 2.02000000E-001 0.00000000E+000
 6.00000000E-001 2.00667000E-001 0.00000000E+000
 6.00000000E-001 1.99333000E-001 0.00000000E+000
 6.00000000E-001 1.98000000E-001 0.00000000E+000
 6.00000000E-001 1.96667000E-001 0.00000000E+000
 6.00000000E-001 1.95333000E-001 0.00000000E+000
 6.00000000E-001 1.94000000E-001 0.00000000E+000
 6.00000000E-001 1.92667000E-001 0.00000000E+000
 6.00000000E-001 1.91333000E-001 0.00000000E+000
 6.00000000E-001 1.90000000E-001 0.00000000E+000
 5.96490000E-001 1.90000000E-001 0.00000000E+000
 5.92980000E-001 1.90000000E-001 0.00000000E+000
 5.89470000E-001 1.90000000E-001 0.00000000E+000
 5.85960000E-001 1.90000000E-001 0.00000000E+000
 5.82449000E-001 1.90000000E-001 0.00000000E+000
 5.78939000E-001 1.90000000E-001 0.00000000E+000
 5.75429000E-001 1.90000000E-001 0.00000000E+000
 5.71919000E-001 1.90000000E-001 0.00000000E+000
 5.68409000E-001 1.90000000E-001 0.00000000E+000
 5.64899000E-001 1.90000000E-001 0.00000000E+000
 5.61389000E-001 1.90000000E-001 0.00000000E+000
 5.57879000E-001 1.90000000E-001 0.00000000E+000
 5.54369000E-001 1.90000000E-001 0.00000000E+000
 5.50859000E-001 1.90000000E-001 0.00000000E+000
 5.47348000E-001 1.90000000E-001 0.00000000E+000
 5.43838000E-001 1.90000000E-001 0.00000000E+000
 5.40328000E-001 1.90000000E-001 0.00000000E+000
 5.36818000E-001 1.90000000E-001 0.00000000E+000
 5.33308000E-001 1.90000000E-001 0.00000000E+000
 5.29798000E-001 1.90000000E-001 0.00000000E+000
 5.26288000E-001 1.90000000E-001 0.00000000E+000
 5.22778000E-001 1.90000000E-001 0.00000000E+000
 5.19268000E-001 1.90000000E-001 0.00000000E+000
 5.15758000E-001 1.90000000E-001 0.00000000E+000
 5.12247000E-001 1.90000000E-001 0.00000000E+000
 5.08737000E-001 1.90000000E-001 0.00000000E+000
 5.05227000E-001 1.90000000E-001 0.00000000E+000
 5.01717000E-001 1.90000000E-001 0.00000000E+000
 4.98207000E-001 1.90000000E-001 0.00000000E+000
 4.94697000E-001 1.90000000E-001 0.00000000E+000
 4.91187000E-001 1.90000000E-001 0.00000000E+000
 4.87677000E-001 1.90000000E-001 0.00000000E+000
 4.84167000E-001 1.90000000E-001 0.00000000E+000
 4.80657000E-001 1.90000000E-001 0.00000000E+000
 4.77146000E-001 1.90000000E-001 0.00000000E+000
 4.73636000E-001 1.90000000E-001 0.00000000E+000
 4.70126000E-001 1.90000000E-001 0.00000000E+000
 4.66616000E-001 1.90000000E-001 0.00000000E+000
 4.63106000E-001 1.90000000E-001 0.00000000E+000
 4.59596000E-001 1.90000000E-001 0.00000000E+000
 4.56086000E-001 1.90000000E-001 0.00000000E+000
 4.52576000E-001 1.90000000E-001 0.00000000E+000
 4.49066000E-001 1.90000000E-001 0.00000000E+000
 4.45556000E-001 1.90000000E-001 0.00000000E+000
 4.42045000E-001 1.90000000E-001 0.00000000E+000
 4.38535000E-001 1.90000000E-001 0.00000000E+000
 4.35025000E-001 1.90000000E-001 0.00000000E+000
 4.31515000E-001 1.90000000E-001 0.00000000E+000
 4.28005000E-001 1.90000000E-001 0.00000000E+000
 4.24495000E-001 1.90000000E-001 0.00000000E+000
 4.20985000E-001 1.90000000E-001 0.00000000E+000
 4.17475000E-001 1.90000000E-001 0.00000000E+000
 4.13965000E-001 1.90000000E-001 0.00000000E+000
 4.10455000E-001 1.90000000E-001 0.00000000E+000
 4.06944000E-001 1.90000000E-001 0.00000000E+000
 4.03434000E-001 1.90000000E-001 0.00000000E+000
 3.99924000E-001 1.90000000E-001 0.00000000E+000
 3.96414000E-001 1.90000000E-001 0.00000000E+000
 3.92904000E-001 1.90000000E-001 0.00000000E+000
 3.89394000E-001 1.90000000E-001 0.00000000E+000
 3.85884000E-001 1.90000000E-001 0.00000000E+000
 3.82374000E-001 1.90000000E-001 0.00000000E+000
 3.78864000E-001 1.90000000E-001 0.00000000E+000
 3.75353000E-001 1.90000000E-001 0.00000000E+000
 3.71843000E-001 1.90000000E-001 0.00000000E+000
 3.68333000E-001 1.90000000E-001 0.00000000E+000
 3.64823000E-001 1.90000000E-001 0.00000000E+000
 3.61313000E-001 1.90000000E-001 0.00000000E+000
 3.57803000E-001 1.90000000E-001 0.00000000E+000
 3.54293000E-001 1.90000000E-001 0.00000000E+000
 3.50783000E-001 1.90000000E-001 0.00000000E+000
 3.47273000E-001 1.90000000E-001 0.00000000E+000
 3.43763000E-001 1.90000000E-001 0.00000000E+000
 3.40252000E-001 1.90000000E-001 0.00000000E+000
 3.36742000E-001 1.90000000E-001 0.00000000E+000
 3.33232000E-001 1.90000000E-001 0.00000000E+000
 3.29722000E-001 1.90000000E-001 0.00000000E+000
 3.26212000E-001 1.90000000E-001 0.00000000E+000
 3.22702000E-001 1.90000000E-001 0.00000000E+000
 3.19192000E-001 1.90000000E-001 0.00000000E+000
 3.15682000E-001 1.90000000E-001 0.00000000E+000
 3.12172000E-001 1.90000000E-001 0.00000000E+000
 3.08661000E-001 1.90000000E-001 0.00000000E+000
 3.05151000E-001 1.90000000E-001 0.00000000E+000
 3.01641000E-001 1.90000000E-001 0.00000000E+000
 2.98131000E-001 1.90000000E-001 0.00000000E+000
 2.94621000E-001 1.90000000E-001 0.00000000E+000
 2.91111000E-001 1.90000000E-001 0.00000000E+000
 2.87601000E-001 1.90000000E-001 0.00000000E+000
 2.84091000E-001 1.90000000E-001 0.00000000E+000
 2.80581000E-001 1.90000000E-001 0.00000000E+000
 2.77071000E-001 1.90000000E-001 0.00000000E+000
 2.73560000E-001 1.90000000E-001 0.00000000E+000
 2.70050000E-001 1.90000000E-001 0.00000000E+000
 2.66540000E-001 1.90000000E-001 0.00000000E+000
 2.63030000E-001 1.90000000E-001 0.00000000E+000
 2.59520000E-001 1.90000000E-001 0.00000000E+000
 2.56010000E-001 1.90000000E-001 0.00000000E+000
 2.52500000E-001 1.90000000E-001 0.00000000E+000
 2.48990000E-001 1.90000000E-001 0.00000000E+000
 2.48990000E-001 1.91333000E-001 0.00000000E+000
 2.48990000E-001 1.92667000E-001 0.00000000E+000
 2.48990000E-001 1.94000000E-001 0.00000000E+000
 2.48990000E-001 1.95333000E-001 0.00000000E+000
 2.48990000E-001 1.96667000E-001 0.00000000E+000
 2.48990000E-001 1.98000000E-001 0.00000000E+000
 2.48990000E-001 1.99333000E-001 0.00000000E+000
 2.48990000E-001 2.00667000E-001 0.00000000E+000
 2.48990000E-001 2.02000000E-001 0.00000000E+000
 2.48990000E-001 2.03333000E-001 0.00000000E+000
 2.48990000E-001 2.04667000E-001 0.00000000E+000
 2.48990000E-001 2.06000000E-001 0.00000000E+000
 2.48990000E-001 2.07333000E-001 0.00000000E+000
 2.48990000E-001 2.08667000E-001 0.00000000E+000
 2.48990000E-001 2.10000000E-001 0.00000000E+000
 2.52500000E-001 2.10000000E-001 0.00000000E+000
 2.56010000E-001 2.10000000E-001 0.00000000E+000
 2.59520000E-001 2.10000000E-001 0.00000000E+000
 2.63030000E-001 2.10000000E-001 0.00000000E+000
 2.66540000E-001 2.10000000E-001 0.00000000E+000
 2.70050000E-001 2.10000000E-001 0.00000000E+000
 2.73560000E-001 2.10000000E-001 0.00000000E+000
 2.77071000E-001 2.10000000E-001 0.00000000E+000
 2.80581000E-001 2.10000000E-001 0.00000000E+000
 2.84091000E-001 2.10000000E-001 0.00000000E+000
 2.87601000E-001 2.10000000E-001 0.00000000E+000
 2.91111000E-001 2.10000000E-001 0.00000000E+000
 2.94621000E-001 2.10000000E-001 0.00000000E+000
 2.98131000E-001 2.10000000E-001 0.00000000E+000
 3.01641000E-001 2.10000000E-001 0.00000000E+000
 3.05151000E-001 2.10000000E-001 0.00000000E+000
 3.08661000E-001 2.10000000E-001 0.00000000E+000
 3.12172000E-001 2.10000000E-001 0.00000000E+000
 3.15682000E-001 2.10000000E-001 0.00000000E+000
 3.19192000E-001 2.10000000E-001 0.00000000E+000
 3.22702000E-001 2.10000000E-001 0.00000000E+000
 3.26212000E-001 2.10000000E-001 0.00000000E+000
 3.29722000E-001 2.10000000E-001 0.00000000E+000
 3.33232000E-001 2.10000000E-001 0.00000000E+000
 3.36742000E-001 2.10000000E-001 0.00000000E+000
 3.40252000E-001 2.10000000E-001 0.00000000E+000
 3.43763000E-001 2.10000000E-001 0.00000000E+000
 3.47273000E-001 2.10000000E-001 0.00000000E+000
 3.50783000E-001 2.10000000E-001 0.00000000E+000
 3.54293000E-001 2.10000000E-001 0.00000000E+000
 3.57803000E-001 2.10000000E-001 0.00000000E+000
 3.61313000E-001 2.10000000E-001 0.00000000E+000
 3.64823000E-001 2.10000000E-001 0.00000000E+000
 3.68333000E-001 2.10000000E-001 0.00000000E+000
 3.71843000E-001 2.10000000E-001 0.00000000E+000
 3.75353000E-001 2.10000000E-001 0.00000000E+000
 3.78864000E-001 2.10000000E-001 0.00000000E+000
 3.82374000E-001 2.10000000E-001 0.00000000E+000
 3.85884000E-001 2.10000000E-001 0.00000000E+000
 3.89394000E-001 2.10000000E-001 0.00000000E+000
 3.92904000E-001 2.10000000E-001 0.00000000E+000
 3.96414000E-001 2.10000000E-001 0.00000000E+000
 3.99924000E-001 2.10000000E-001 0.00000000E+000
 4.03434000E-001 2.10000000E-001 0.00000000E+000
 4.06944000E-001 2.10000000E-001 0.00000000E+000
 4.10455000E-001 2.10000000E-001 0.00000000E+000
 4.13965000E-001 2.10000000E-001 0.00000000E+000
 4.17475000E-001 2.10000000E-001 0.00000000E+000
 4.20985000E-001 2.10000000E-001 0.00000000E+000
 4.24495000E-001 2.10000000E-001 0.00000000E+000
 4.28005000E-001 2.10000000E-001 0.00000000E+000
 4.31515000E-001 2.10000000E-001 0.00000000E+000
 4.35025000E-001 2.10000000E-001 0.00000000E+000
 4.38535000E-001 2.10000000E-001 0.00000000E+000
 4.42045000E-001 2.10000000E-001 0.00000000E+000
 4.45556000E-001 2.10000000E-001 0.00000000E+000
 4.49066000E-001 2.10000000E-001 0.00000000E+000
 4.52576000E-001 2.10000000E-001 0.00000000E+000
 4.56086000E-001 2.10000000E-001 0.00000000E+000
 4.59596000E-001 2.10000000E-001 0.00000000E+000
 4.63106000E-001 2.10000000E-001 0.00000000E+000
 4.66616000E-001 2.10000000E-001 0.00000000E+000
 4.70126000E-001 2.10000000E-001 0.00000000E+000
 4.73636000E-001 2.10000000E-001 0.00000000E+000
 4.77146000E-001 2.10000000E-001 0.00000000E+000
 4.80657000E-001 2.10000000E-001 0.00000000E+000
 4.84167000E-001 2.10000000E-001 0.00000000E+000
 4.87677000E-001 2.10000000E-001 0.00000000E+000
 4.91187000E-001 2.10000000E-001 0.00000000E+000
 4.94697000E-001 2.10000000E-001 0.00000000E+000
[...]
POINT_DATA 3232
VECTORS DISP double
 -6.5562300E-003  3.4379600E-002  1.2091700E-005
 -6.2284300E-003  3.4419900E-002  1.2158000E-005
 -5.9012600E-003  3.4460800E-002  1.2357800E-005
 -5.5738100E-003  3.4501600E-002  1.2693200E-005
 -5.2464000E-003  3.4542400E-002  1.3152900E-005
 -4.9189200E-003  3.4583300E-002  1.3715400E-005
 -4.5914500E-003  3.4624100E-002  1.4356300E-005
 -4.2639700E-003  3.4665000E-002  1.5048200E-005
 -3.9364200E-003  3.4705900E-002  1.5761500E-005
 -3.6089200E-003  3.4746900E-002  1.6466100E-005
 -3.2813100E-003  3.4787900E-002  1.7131800E-005
 -2.9537700E-003  3.4828800E-002  1.7730400E-005
 -2.6260100E-003  3.4869900E-002  1.8234000E-005
 -2.2985500E-003  3.4910800E-002  1.8621000E-005
 -1.9703500E-003  3.4952000E-002  1.8864400E-005
 -1.6433500E-003  3.4992600E-002  1.8944700E-005
 -1.5356700E-003  3.4130400E-002  1.9029500E-005
 -1.4288400E-003  3.3267100E-002  1.9280900E-005
 -1.3216300E-003  3.2404800E-002  1.9694600E-005
 -1.2148200E-003  3.1541800E-002  2.0274300E-005
 -1.1081400E-003  3.0679400E-002  2.1023100E-005
 -1.0019000E-003  2.9816600E-002  2.1942600E-005
 -8.9610100E-004  2.8954300E-002  2.3036300E-005
 -7.9091600E-004  2.8092000E-002  2.4306600E-005
 -6.8646000E-004  2.7230400E-002  2.5756700E-005
 -5.8287400E-004  2.6369300E-002  2.7389100E-005
 -4.8033300E-004  2.5509200E-002  2.9206100E-005
 -3.7898700E-004  2.4650200E-002  3.1208700E-005
 -2.7904600E-004  2.3792600E-002  3.3397400E-005
 -1.8068300E-004  2.2936700E-002  3.5771200E-005
 -8.4132000E-005  2.2083000E-002  3.8328200E-005
  1.0412900E-005  2.1231800E-002  4.1064500E-005
  1.0269800E-004  2.0383600E-002  4.3975500E-005
  1.9251500E-004  1.9539000E-002  4.7054500E-005
  2.7959800E-004  1.8698400E-002  5.0293700E-005
  3.6372600E-004  1.7862500E-002  5.3683700E-005
  4.4463500E-004  1.7031800E-002  5.7213300E-005
  5.2209200E-004  1.6207100E-002  6.0870500E-005
  5.9585300E-004  1.5389100E-002  6.4641300E-005
  6.6567200E-004  1.4578500E-002  6.8510900E-005
  7.3134800E-004  1.3776000E-002  7.2462700E-005
  7.9261600E-004  1.2982500E-002  7.6479900E-005
  8.4933100E-004  1.2198900E-002  8.0544000E-005
  9.0123300E-004  1.1425900E-002  8.4635700E-005
  9.4822500E-004  1.0664400E-002  8.8735700E-005
  9.9007900E-004  9.9155200E-003  9.2822900E-005
  1.0267300E-003  9.1797500E-003  9.6877600E-005
  1.0580300E-003  8.4583300E-003  1.0087800E-004
  1.0839100E-003  7.7519000E-003  1.0480300E-004
  1.1043300E-003  7.0615200E-003  1.0863300E-004
  1.1192300E-003  6.3879900E-003  1.1234600E-004
  1.1286800E-003  5.7321000E-003  1.1592300E-004
  1.1326200E-003  5.0948700E-003  1.1934500E-004
  1.1312500E-003  4.4767600E-003  1.2259300E-004
  1.1245200E-003  3.8790000E-003  1.2564900E-004
  1.1127000E-003  3.3017100E-003  1.2849700E-004
  1.0958400E-003  2.7462200E-003  1.3112200E-004
  1.0742000E-003  2.2125000E-003  1.3351200E-004
  1.0479600E-003  1.7016700E-003  1.3565200E-004
  1.0173600E-003  1.2138000E-003  1.3753400E-004
  9.8271200E-004  7.4958100E-004  1.3914600E-004
  9.4421400E-004  3.0933200E-004  1.4048300E-004
  9.0229100E-004 -1.0681900E-004  1.4153900E-004
  8.5712800E-004 -4.9825700E-004  1.4230800E-004
  8.0919900E-004 -8.6540200E-004  1.4279000E-004
  7.5871900E-004 -1.2074500E-003  1.4298000E-004
  7.0614300E-004 -1.5252000E-003  1.4288100E-004
  6.5175900E-004 -1.8179000E-003  1.4249100E-004
  5.9594900E-004 -2.0864200E-003  1.4181600E-004
  5.3908200E-004 -2.3303700E-003  1.4085700E-004
  4.8146400E-004 -2.5504500E-003  1.3961900E-004
  4.2350500E-004 -2.7467800E-003  1.3810700E-004
  3.6546200E-004 -2.9197700E-003  1.3632700E-004
  3.0773600E-004 -3.0701100E-003  1.3428600E-004
  2.5057500E-004 -3.1979100E-003  1.3198900E-004
  1.9431200E-004 -3.3043000E-003  1.2944700E-004
  1.3922300E-004 -3.3893200E-003  1.2666400E-004
  8.5536500E-005 -3.4542500E-003  1.2365100E-004
  3.3569100E-005 -3.4993100E-003  1.2041400E-004
 -1.6559100E-005 -3.5256600E-003  1.1696400E-004
 -6.4511100E-005 -3.5339100E-003  1.1330800E-004
 -1.1024900E-004 -3.5249000E-003  1.0945600E-004
 -1.5345000E-004 -3.4997700E-003  1.0541700E-004
 -1.9412200E-004 -3.4589600E-003  1.0120000E-004
 -2.3199300E-004 -3.4040800E-003  9.6815100E-005
 -2.6708600E-004 -3.3352700E-003  9.2270400E-005
 -2.9919700E-004 -3.2544600E-003  8.7577400E-005
 -3.2835300E-004 -3.1616700E-003  8.2744800E-005
 -3.5441200E-004 -3.0588800E-003  7.7784200E-005
 -3.7742200E-004 -2.9462000E-003  7.2705800E-005
 -3.9726600E-004 -2.8255300E-003  6.7520800E-005
 -4.1404500E-004 -2.6971400E-003  6.2241600E-005
 -4.2762700E-004 -2.5627700E-003  5.6880100E-005
 -4.3820400E-004 -2.4228200E-003  5.1451100E-005
 -4.4558100E-004 -2.2789900E-003  4.5967700E-005
 -4.5006900E-004 -2.1316300E-003  4.0448200E-005
 -4.5138400E-004 -1.9825800E-003  3.4908200E-005
 -4.4996500E-004 -1.8319100E-003  2.9370600E-005
 -4.4543500E-004 -1.6818600E-003  2.3855800E-005
 -4.3833600E-004 -1.5318900E-003  1.8392700E-005
 -4.2822700E-004 -1.3849600E-003  1.3009800E-005
 -4.1570300E-004 -1.2396400E-003  7.7451800E-006
 -4.0032200E-004 -1.0998400E-003  2.6391300E-006
 -3.8263500E-004 -9.6299600E-004 -2.2555200E-006
 -3.6231200E-004 -8.3419900E-004 -6.8806000E-006
 -3.3970300E-004 -7.0953200E-004 -1.1159900E-005
 -3.1480000E-004 -5.9547100E-004 -1.5008600E-005
 -2.8745300E-004 -4.8646800E-004 -1.8312500E-005
 -2.5838500E-004 -3.9078000E-004 -2.0947100E-005
 -2.2635500E-004 -3.0062900E-004 -2.2735700E-005
 -1.9368100E-004 -2.2696800E-004 -2.3493600E-005
 -1.5673900E-004 -1.5837200E-004 -2.2935900E-005
 -1.2160800E-004 -1.1085600E-004 -2.0792600E-005
 -7.9445800E-005 -6.4985100E-005 -1.6581000E-005
 -4.7183200E-005 -4.8311200E-005 -1.0017200E-005
  0.0000000E+000  0.0000000E+000  0.0000000E+000
  0.0000000E+000  0.0000000E+000  0.0000000E+000
  0.0000000E+000  0.0000000E+000  0.0000000E+000
  0.0000000E+000  0.0000000E+000  0.0000000E+000
  0.0000000E+000  0.0000000E+000  0.0000000E+000
  0.0000000E+000  0.0000000E+000  0.0000000E+000
  0.0000000E+000  0.0000000E+000  0.0000000E+000
  0.0000000E+000  0.0000000E+000  0.0000000E+000
  0.0000000E+000  0.0000000E+000  0.0000000E+000
  0.0000000E+000  0.0000000E+000  0.0000000E+000
  0.0000000E+000  0.0000000E+000  0.0000000E+000
  0.0000000E+000  0.0000000E+000  0.0000000E+000
  0.0000000E+000  0.0000000E+000  0.0000000E+000
  0.0000000E+000  0.0000000E+000  0.0000000E+000
  0.0000000E+000  0.0000000E+000  0.0000000E+000
  0.0000000E+000  0.0000000E+000  0.0000000E+000
  4.4051900E-005 -4.3567400E-005  1.4488900E-005
  7.6168700E-005 -6.0981700E-005  2.5335300E-005
  1.1608300E-004 -1.0664500E-004  3.3603300E-005
  1.4949100E-004 -1.5562800E-004  3.9616700E-005
  1.8364400E-004 -2.2486500E-004  4.3855900E-005
  2.1346200E-004 -3.0035500E-004  4.6601400E-005
  2.4190000E-004 -3.9134300E-004  4.8136500E-005
  2.6706300E-004 -4.8902900E-004  4.8646500E-005
  2.8990600E-004 -5.9887500E-004  4.8308000E-005
  3.0987500E-004 -7.1490100E-004  4.7243000E-005
  3.2707200E-004 -8.4034100E-004  4.5567300E-005
  3.4151900E-004 -9.7083300E-004  4.3362700E-005
  3.5299300E-004 -1.1083400E-003  4.0707900E-005
  3.6174200E-004 -1.2493600E-003  3.7659700E-005
  3.6744200E-004 -1.3952000E-003  3.4272400E-005
  3.7042200E-004 -1.5427400E-003  3.0587700E-005
  3.7034100E-004 -1.6930100E-003  2.6644500E-005
  3.6756000E-004 -1.8430300E-003  2.2475000E-005
  3.6173800E-004 -1.9937000E-003  1.8108300E-005
  3.5325800E-004 -2.1421600E-003  1.3571200E-005
  3.4178200E-004 -2.2891000E-003  8.8867900E-006
  3.2770200E-004 -2.4319200E-003  4.0785700E-006
  3.1069300E-004 -2.5710000E-003 -8.3314500E-007
  2.9113700E-004 -2.7041100E-003 -5.8275100E-006
  2.6873900E-004 -2.8311900E-003 -1.0885000E-005
  2.4384300E-004 -2.9505100E-003 -1.5986600E-005
  2.1620600E-004 -3.0615600E-003 -2.1112400E-005
  1.8611100E-004 -3.1630600E-003 -2.6244700E-005
  1.5338200E-004 -3.2541300E-003 -3.1363200E-005
  1.1822100E-004 -3.3338400E-003 -3.6450500E-005
  8.0530200E-005 -3.4011200E-003 -4.1485900E-005
  4.0424400E-005 -3.4552200E-003 -4.6452000E-005
 -2.1245900E-006 -3.4950600E-003 -5.1328200E-005
 -4.7073200E-005 -3.5198800E-003 -5.6096300E-005
 -9.4405800E-005 -3.5287900E-003 -6.0736700E-005
 -1.4412200E-004 -3.5209200E-003 -6.5230500E-005
 -1.9619200E-004 -3.4956300E-003 -6.9559100E-005
 -2.5063100E-004 -3.4519300E-003 -7.3703300E-005
 -3.0741800E-004 -3.3894200E-003 -7.7645600E-005
 -3.6656100E-004 -3.3070400E-003 -8.1367500E-005
 -4.2806700E-004 -3.2046000E-003 -8.4852800E-005
 -4.9191900E-004 -3.0810600E-003 -8.8084000E-005
 -5.5815800E-004 -2.9362900E-003 -9.1046500E-005
 -6.2674000E-004 -2.7694700E-003 -9.3725200E-005
 -6.9772900E-004 -2.5804100E-003 -9.6106800E-005
 -7.7106300E-004 -2.3685700E-003 -9.8179500E-005
 -8.4681100E-004 -2.1336900E-003 -9.9932200E-005
 -9.2490700E-004 -1.8755300E-003 -1.0135700E-004
 -1.0054000E-003 -1.5937600E-003 -1.0244500E-004
 -1.0882400E-003 -1.2884300E-003 -1.0319100E-004
 -1.1734500E-003 -9.5921600E-004 -1.0359300E-004
 -1.2609700E-003 -6.0633000E-004 -1.0364900E-004
 -1.3507800E-003 -2.2960600E-004 -1.0335900E-004
 -1.4428700E-003  1.7069100E-004 -1.0272600E-004
 -1.5371500E-003  5.9450300E-004 -1.0175600E-004
 -1.6336200E-003  1.0415600E-003 -1.0045600E-004
 -1.7321600E-003  1.5115500E-003 -9.8836200E-005
 -1.8327500E-003  2.0042100E-003 -9.6907300E-005
 -1.9352700E-003  2.5189900E-003 -9.4684000E-005
 -2.0396600E-003  3.0556200E-003 -9.2181600E-005
 -2.1458000E-003  3.6133700E-003 -8.9418600E-005
 -2.2536100E-003  4.1919000E-003 -8.6413600E-005
 -2.3629600E-003  4.7903900E-003 -8.3188300E-005
 -2.4737400E-003  5.4083400E-003 -7.9764500E-005
 -2.5858200E-003  6.0449800E-003 -7.6165900E-005
 -2.6990700E-003  6.6996000E-003 -7.2416500E-005
 -2.8133800E-003  7.3714800E-003 -6.8541300E-005
 -2.9285700E-003  8.0597600E-003 -6.4566000E-005
 -3.0445700E-003  8.7637600E-003 -6.0515500E-005
 -3.1611800E-003  9.4824900E-003 -5.6416100E-005
 -3.2783200E-003  1.0215300E-002 -5.2292200E-005
 -3.3958200E-003  1.0961200E-002 -4.8169100E-005
 -3.5135800E-003  1.1719500E-002 -4.4070300E-005
 -3.6314800E-003  1.2489300E-002 -4.0019100E-005
 -3.7493800E-003  1.3269700E-002 -3.6037200E-005
 -3.8672200E-003  1.4060000E-002 -3.2145100E-005
 -3.9848300E-003  1.4859400E-002 -2.8361900E-005
 -4.1022100E-003  1.5667100E-002 -2.4704800E-005
 -4.2191700E-003  1.6482100E-002 -2.1189800E-005
 -4.3357600E-003  1.7304200E-002 -1.7830100E-005
 -4.4518200E-003  1.8132200E-002 -1.4638200E-005
 -4.5673900E-003  1.8965800E-002 -1.1623000E-005
 -4.6823400E-003  1.9804100E-002 -8.7929400E-006
 -4.7967300E-003  2.0646800E-002 -6.1532100E-006
 -4.9104800E-003  2.1493000E-002 -3.7075300E-006
 -5.0236400E-003  2.2342500E-002 -1.4576400E-006
 -5.1361600E-003  2.3194700E-002  5.9712200E-007
 -5.2481000E-003  2.4049200E-002  2.4583000E-006
 -5.3594300E-003  2.4905500E-002  4.1303600E-006
 -5.4702400E-003  2.5763600E-002  5.6177500E-006
 -5.5804800E-003  2.6622700E-002  6.9279300E-006
 -5.6903000E-003  2.7483000E-002  8.0676500E-006
 -5.7995900E-003  2.8343800E-002  9.0463700E-006
 -5.9085900E-003  2.9205500E-002  9.8721300E-006
 -6.0171100E-003  3.0067200E-002  1.0555500E-005
 -6.1254800E-003  3.0929700E-002  1.1103800E-005
 -6.2333500E-003  3.1791700E-002  1.1527700E-005
 -6.3412900E-003  3.2654600E-002  1.1830500E-005
 -6.4484900E-003  3.3516300E-002  1.2020500E-005
 -6.1211800E-003  3.3557800E-002  1.2091900E-005
 -6.0136100E-003  3.2695100E-002  1.1909500E-005
 -5.9058200E-003  3.1832800E-002  1.1617000E-005
 -5.7978500E-003  3.0970100E-002  1.1206800E-005
 -5.6895900E-003  3.0108100E-002  1.0674800E-005
 -5.5810900E-003  2.9245800E-002  1.0011900E-005
 -5.4722600E-003  2.8384300E-002  9.2098800E-006
 -5.3631000E-003  2.7523000E-002  8.2593300E-006
 -5.2535600E-003  2.6662700E-002  7.1516600E-006
 -5.1436200E-003  2.5803100E-002  5.8783200E-006
 -5.0332500E-003  2.4944900E-002  4.4319900E-006
 -4.9224200E-003  2.4088100E-002  2.8060300E-006
 -4.8111600E-003  2.3233200E-002  9.9542200E-007
 -4.6994000E-003  2.2380500E-002 -1.0036900E-006
 -4.5872200E-003  2.1530500E-002 -3.1933100E-006
 -4.4745500E-003  2.0683500E-002 -5.5738300E-006
 -4.3615000E-003  1.9840300E-002 -8.1437200E-006
 -4.2480100E-003  1.9001100E-002 -1.0899500E-005
 -4.1342100E-003  1.8166800E-002 -1.3835700E-005
 -4.0200700E-003  1.7337700E-002 -1.6944900E-005
 -3.9057200E-003  1.6514800E-002 -2.0217600E-005
 -3.7911800E-003  1.5698500E-002 -2.3642200E-005
 -3.6765800E-003  1.4889800E-002 -2.7205600E-005
 -3.5619800E-003  1.4089100E-002 -3.0892300E-005
 -3.4474800E-003  1.3297500E-002 -3.4685400E-005
 -3.3332100E-003  1.2515700E-002 -3.8566500E-005
 -3.2192600E-003  1.1744500E-002 -4.2515500E-005
 -3.1057900E-003  1.0984700E-002 -4.6511000E-005
 -2.9928800E-003  1.0237200E-002 -5.0530600E-005
 -2.8806900E-003  9.5027600E-003 -5.4551000E-005
 -2.7693300E-003  8.7822800E-003 -5.8547900E-005
 -2.6589500E-003  8.0766200E-003 -6.2497000E-005
 -2.5496800E-003  7.3865500E-003 -6.6373100E-005
 -2.4416300E-003  6.7129300E-003 -7.0151400E-005
 -2.3349600E-003  6.0565100E-003 -7.3807100E-005
 -2.2297500E-003  5.4180800E-003 -7.7315700E-005
 -2.1261700E-003  4.7983800E-003 -8.0653600E-005
 -2.0242800E-003  4.1980700E-003 -8.3797800E-005
 -1.9242200E-003  3.6178800E-003 -8.6726700E-005
 -1.8260600E-003  3.0583500E-003 -8.9419600E-005
 -1.7299100E-003  2.5201500E-003 -9.1857600E-005
 -1.6358200E-003  2.0037000E-003 -9.4023400E-005
 -1.5438800E-003  1.5095600E-003 -9.5901300E-005
 -1.4541400E-003  1.0380800E-003 -9.7477800E-005
 -1.3666300E-003  5.8966000E-004 -9.8741400E-005
 -1.2814200E-003  1.6457300E-004 -9.9682500E-005
 -1.1985100E-003 -2.3695600E-004 -1.0029400E-004
 -1.1179400E-003 -6.1471700E-004 -1.0057100E-004
 -1.0396900E-003 -9.6866700E-004 -1.0051000E-004
 -9.6380000E-004 -1.2986800E-003 -1.0011100E-004
 -8.9023800E-004 -1.6048700E-003 -9.9374300E-005
 -8.1899800E-004 -1.8872400E-003 -9.8304500E-005
 -7.5007900E-004 -2.1460000E-003 -9.6906500E-005
 -6.8342900E-004 -2.3813200E-003 -9.5187400E-005
 -6.1906800E-004 -2.5934700E-003 -9.3156000E-005
 -5.5691900E-004 -2.7828300E-003 -9.0822700E-005
 -4.9700800E-004 -2.9496900E-003 -8.8199500E-005
 -4.3925700E-004 -3.0946200E-003 -8.5299500E-005
 -3.8368100E-004 -3.2179400E-003 -8.2136900E-005
 -3.3022900E-004 -3.3204100E-003 -7.8726900E-005
 -2.7888300E-004 -3.4023800E-003 -7.5085800E-005
 -2.2964300E-004 -3.4647400E-003 -7.1230200E-005
 -1.8244600E-004 -3.5079200E-003 -6.7177900E-005
 -1.3735000E-004 -3.5328600E-003 -6.2946400E-005
 -9.4259100E-005 -3.5401600E-003 -5.8554200E-005
 -5.3269200E-005 -3.5307200E-003 -5.4019800E-005
 -1.4277300E-005 -3.5052900E-003 -4.9361800E-005
  2.2608600E-005 -3.4647800E-003 -4.4599000E-005
  5.7468700E-005 -3.4100400E-003 -3.9750200E-005
  9.0213900E-005 -3.3420100E-003 -3.4834300E-005
  1.2087500E-004 -3.2615800E-003 -2.9869800E-005
  1.4940300E-004 -3.1697900E-003 -2.4875700E-005
  1.7577300E-004 -3.0674500E-003 -1.9870200E-005
  1.9997000E-004 -2.9557900E-003 -1.4872300E-005
  2.2193600E-004 -2.8354600E-003 -9.9002100E-006
  2.4166200E-004 -2.7079500E-003 -4.9727500E-006
  2.5909800E-004 -2.5736500E-003 -1.0887900E-007
  2.7420600E-004 -2.4343600E-003  4.6722200E-006
  2.8697900E-004 -2.2901900E-003  9.3504700E-006
  2.9732300E-004 -2.1432300E-003  1.3905400E-005
  3.0530300E-004 -1.9933000E-003  1.8314800E-005
  3.1076200E-004 -1.8427800E-003  2.2555400E-005
  3.1382600E-004 -1.6912100E-003  2.6601200E-005
  3.1431700E-004 -1.5412400E-003  3.0424100E-005
  3.1236300E-004 -1.3920900E-003  3.3991700E-005
  3.0786000E-004 -1.2467300E-003  3.7267400E-005
  3.0081600E-004 -1.1039700E-003  4.0208400E-005
  2.9136200E-004 -9.6724400E-004  4.2764500E-005
  2.7919100E-004 -8.3468800E-004  4.4876300E-005
  2.6492200E-004 -7.1055300E-004  4.6471900E-005
  2.4761200E-004 -5.9185900E-004  4.7465300E-005
  2.2879500E-004 -4.8418500E-004  4.7750800E-005
  2.0632900E-004 -3.8279500E-004  4.7200400E-005
  1.8342200E-004 -2.9535000E-004  4.5653600E-005
  1.5567200E-004 -2.1446800E-004  4.2915200E-005
  1.2947600E-004 -1.5095300E-004  3.8732300E-005
  9.6066500E-005 -9.3822700E-005  3.2808800E-005
  6.8422100E-005 -5.7726300E-005  2.4733700E-005
  2.9427300E-005 -2.7756700E-005  1.4154100E-005
 -5.7936300E-003  3.3598600E-002  1.2303800E-005
 -5.6860700E-003  3.2736000E-002  1.2143400E-005
 -5.5783000E-003  3.1873500E-002  1.1879400E-005
 -5.4702900E-003  3.1011000E-002  1.1508000E-005
 -5.3621600E-003  3.0148500E-002  1.1023200E-005
 -5.2537000E-003  2.9286400E-002  1.0418100E-005
 -5.1450700E-003  2.8424500E-002  9.6844800E-006
 -5.0360800E-003  2.7563300E-002  8.8140900E-006
 -4.9268500E-003  2.6702500E-002  7.7984600E-006
 -4.8172500E-003  2.5842900E-002  6.6299600E-006
 -4.7073500E-003  2.4984200E-002  5.3013200E-006
 -4.5971000E-003  2.4127200E-002  3.8065600E-006
 -4.4865200E-003  2.3271800E-002  2.1405800E-006
 -4.3756300E-003  2.2418700E-002  2.9990500E-007
 -4.2644100E-003  2.1568100E-002 -1.7176600E-006
 -4.1529400E-003  2.0720600E-002 -3.9125000E-006
 -4.0412000E-003  1.9876600E-002 -6.2833700E-006
 -3.9293000E-003  1.9036800E-002 -8.8271800E-006
 -3.8172400E-003  1.8201600E-002 -1.1538900E-005
 -3.7051200E-003  1.7371800E-002 -1.4411800E-005
 -3.5930100E-003  1.6547800E-002 -1.7437100E-005
 -3.4809900E-003  1.5730600E-002 -2.0604300E-005
 -3.3691700E-003  1.4920700E-002 -2.3900800E-005
 -3.2576300E-003  1.4118900E-002 -2.7312800E-005
 -3.1465100E-003  1.3326000E-002 -3.0824300E-005
 -3.0358900E-003  1.2542900E-002 -3.4418300E-005
 -2.9259500E-003  1.1770300E-002 -3.8076100E-005
 -2.8167500E-003  1.1009100E-002 -4.1777800E-005
 -2.7084700E-003  1.0260100E-002 -4.5502700E-005
 -2.6012200E-003  9.5241200E-003 -4.9228700E-005
 -2.4951400E-003  8.8020600E-003 -5.2933700E-005
 -2.3903700E-003  8.0947600E-003 -5.6594400E-005
 -2.2870100E-003  7.4030400E-003 -6.0187900E-005
 -2.1852300E-003  6.7277200E-003 -6.3690600E-005
 -2.0850900E-003  6.0696100E-003 -6.7079400E-005
 -1.9867700E-003  5.4294700E-003 -7.0331700E-005
 -1.8903200E-003  4.8080600E-003 -7.3425100E-005
 -1.7958800E-003  4.2060800E-003 -7.6338400E-005
 -1.7035000E-003  3.6242000E-003 -7.9051000E-005
 -1.6133000E-003  3.0630700E-003 -8.1543900E-005
 -1.5253200E-003  2.5232500E-003 -8.3799200E-005
 -1.4396200E-003  2.0052900E-003 -8.5800600E-005
 -1.3562600E-003  1.5096500E-003 -8.7533600E-005
 -1.2752500E-003  1.0367800E-003 -8.8985600E-005
 -1.1966500E-003  5.8701300E-004 -9.0145500E-005
 -1.1204200E-003  1.6067200E-004 -9.1004500E-005
 -1.0466300E-003 -2.4201700E-004 -9.1556000E-005
 -9.7520400E-004 -6.2086700E-004 -9.1795000E-005
 -9.0617800E-004 -9.7577900E-004 -9.1719100E-005
 -8.3950100E-004 -1.3067000E-003 -9.1327300E-005
 -7.7514500E-004 -1.6136500E-003 -9.0621100E-005
 -7.1309100E-004 -1.8967000E-003 -8.9603700E-005
 -6.5325700E-004 -2.1560300E-003 -8.8280100E-005
 -5.9565600E-004 -2.3918200E-003 -8.6657200E-005
 -5.4016600E-004 -2.6043600E-003 -8.4743300E-005
 -4.8681800E-004 -2.7939500E-003 -8.2548300E-005
 -4.3548100E-004 -2.9610300E-003 -8.0083300E-005
 -3.8617700E-004 -3.1059900E-003 -7.7360900E-005
 -3.3880300E-004 -3.2293800E-003 -7.4394500E-005
 -2.9334700E-004 -3.3316700E-003 -7.1198600E-005
 -2.4975900E-004 -3.4135600E-003 -6.7788500E-005
 -2.0798100E-004 -3.4755900E-003 -6.4180200E-005
 -1.6802900E-004 -3.5185400E-003 -6.0390100E-005
 -1.2980000E-004 -3.5430500E-003 -5.6435300E-005
 -9.3366000E-005 -3.5499700E-003 -5.2333000E-005
 -5.8607100E-005 -3.5400000E-003 -4.8100900E-005
 -2.5614400E-005 -3.5141000E-003 -4.3756500E-005
  5.7063900E-006 -3.4729900E-003 -3.9317800E-005
  3.5285900E-005 -3.4177100E-003 -3.4802500E-005
  6.3154500E-005 -3.3490100E-003 -3.0228300E-005
  8.9299600E-005 -3.2680200E-003 -2.5613200E-005
  1.1366300E-004 -3.1754700E-003 -2.0974500E-005
  1.3630400E-004 -3.0726100E-003 -1.6330100E-005
  1.5708100E-004 -2.9601000E-003 -1.1697400E-005
  1.7610800E-004 -2.8393400E-003 -7.0938600E-006
  1.9319100E-004 -2.7108800E-003 -2.5371600E-006
  2.0846600E-004 -2.5762700E-003  1.9549100E-006
  2.2173100E-004 -2.4359300E-003  6.3641200E-006