# vtk DataFile Version 3.0
MMH: CalculiX output 'object.frd' file to 'vtk' format
ASCII
DATASET UNSTRUCTURED_GRID
POINTS 3232 double
 6.00000000E-001 2.10000000E-001 0.00000000E+000
 6.00000000E-001 2.08667000E-001 0.00000000E+000
 6.00000000E-001 2.07333000E-001 0.00000000E+000
 6.00000000E-001 2.06000000E-001 0.00000000E+000
 6.00000000E-001 2.04667000E-001 0.00000000E+000
 6.00000000E-001 2.03333000E-001 0.00000000E+000
 6.00000000E-001 2.02000000E-001 0.00000000E+000
 6.00000000E-001 2.00667000E-001 0.00000000E+000
 6.00000000E-001 1.99333000E-001 0.00000000E+000
 6.00000000E-001 1.98000000E-001 0.00000000E+000
 6.00000000E-001 1.96667000E-001 0.00000000E+000
 6.00000000E-001 1.95333000E-001 0.00000000E+000
 6.00000000E-001 1.94000000E-001 0.00000000E+000
 6.00000000E-001 1.92667000E-001 0.00000000E+000
 6.00000000E-001 1.91333000E-001 0.00000000E+000
 6.00000000E-001 1.90000000E-001 0.00000000E+000
 5.96490000E-001 1.90000000E-001 0.00000000E+000
 5.92980000E-001 1.90000000E-001 0.00000000E+000
 5.89470000E-001 1.90000000E-001 0.00000000E+000
 5.85960000E-001 1.90000000E-001 0.00000000E+000
 5.82449000E-001 1.90000000E-001 0.00000000E+000
 5.78939000E-001 1.90000000E-001 0.00000000E+000
 5.75429000E-001 1.90000000E-001 0.00000000E+000
 5.71919000E-001 1.90000000E-001 0.00000000E+000
 5.68409000E-001 1.90000000E-001 0.00000000E+000
 5.64899000E-001 1.90000000E-001 0.00000000E+000
 5.61389000E-001 1.90000000E-001 0.00000000E+000
 5.57879000E-001 1.90000000E-001 0.00000000E+000
 5.54369000E-001 1.90000000E-001 0.00000000E+000
 5.50859000E-001 1.90000000E-001 0.00000000E+000
 5.47348000E-001 1.90000000E-001 0.00000000E+000
 5.43838000E-001 1.90000000E-001 0.00000000E+000
 5.40328000E-001 1.90000000E-001 0.00000000E+000
 5.36818000E-001 1.90000000E-001 0.00000000E+000
 5.33308000E-001 1.90000000E-001 0.00000000E+000
 5.29798000E-001 1.90000000E-001 0.00000000E+000
 5.26288000E-001 1.90000000E-001 0.00000000E+000
 5.22778000E-001 1.90000000E-001 0.00000000E+000
 5.19268000E-001 1.90000000E-001 0.00000000E+000
 5.15758000E-001 1.90000000E-001 0.00000000E+000
 5.12247000E-001 1.90000000E-001 0.00000000E+000
 5.08737000E-001 1.90000000E-001 0.00000000E+000
 5.05227000E-001 1.90000000E-001 0.00000000E+000
 5.01717000E-001 1.90000000E-001 0.00000000E+000
 4.98207000E-001 1.90000000E-001 0.00000000E+000
 4.94697000E-001 1.90000000E-001 0.00000000E+000
 4.91187000E-001 1.90000000E-001 0.00000000E+000
 4.87677000E-001 1.90000000E-001 0.00000000E+000
 4.84167000E-001 1.90000000E-001 0.00000000E+000
 4.80657000E-001 1.90000000E-001 0.00000000E+000
 4.77146000E-001 1.90000000E-001 0.00000000E+000
 4.73636000E-001 1.90000000E-001 0.00000000E+000
 4.70126000E-001 1.90000000E-001 0.00000000E+000
 4.66616000E-001 1.90000000E-001 0.00000000E+000
 4.63106000E-001 1.90000000E-001 0.00000000E+000
 4.59596000E-001 1.90000000E-001 0.00000000E+000
 4.56086000E-001 1.90000000E-001 0.00000000E+000
 4.52576000E-001 1.90000000E-001 0.00000000E+000
 4.49066000E-001 1.90000000E-001 0.00000000E+000
 4.45556000E-001 1.90000000E-001 0.00000000E+000
 4.42045000E-001 1.90000000E-001 0.00000000E+000
 4.38535000E-001 1.90000000E-001 0.00000000E+000
 4.35025000E-001 1.90000000E-001 0.00000000E+000
 4.31515000E-001 1.90000000E-001 0.00000000E+000
 4.28005000E-001 1.90000000E-001 0.00000000E+000
 4.24495000E-001 1.90000000E-001 0.00000000E+000
 4.20985000E-001 1.90000000E-001 0.00000000E+000
 4.17475000E-001 1.90000000E-001 0.00000000E+000
 4.13965000E-001 1.90000000E-001 0.00000000E+000
 4.10455000E-001 1.90000000E-001 0.00000000E+000
 4.06944000E-001 1.90000000E-001 0.00000000E+000
 4.03434000E-001 1.90000000E-001 0.00000000E+000
 3.99924000E-001 1.90000000E-001 0.00000000E+000
 3.96414000E-001 1.90000000E-001 0.00000000E+000
 3.92904000E-001 1.90000000E-001 0.00000000E+000
 3.89394000E-001 1.90000000E-001 0.00000000E+000
 3.85884000E-001 1.90000000E-001 0.00000000E+000
 3.82374000E-001 1.90000000E-001 0.00000000E+000
 3.78864000E-001 1.90000000E-001 0.00000000E+000
 3.75353000E-001 1.90000000E-001 0.00000000E+000
 3.71843000E-001 1.90000000E-001 0.00000000E+000
 3.68333000E-001 1.90000000E-001 0.00000000E+000
 3.64823000E-001 1.90000000E-001 0.00000000E+000
 3.61313000E-001 1.90000000E-001 0.00000000E+000
 3.57803000E-001 1.90000000E-001 0.00000000E+000
 3.54293000E-001 1.90000000E-001 0.00000000E+000
 3.50783000E-001 1.90000000E-001 0.00000000E+000
 3.47273000E-001 1.90000000E-001 0.00000000E+000
 3.43763000E-001 1.90000000E-001 0.00000000E+000
 3.40252000E-001 1.90000000E-001 0.00000000E+000
 3.36742000E-001 1.90000000E-001 0.00000000E+000
 3.33232000E-001 1.90000000E-001 0.00000000E+000
 3.29722000E-001 1.90000000E-001 0.00000000E+000
 3.26212000E-001 1.90000000E-001 0.00000000E+000
 3.22702000E-001 1.90000000E-001 0.00000000E+000
 3.19192000E-001 1.90000000E-001 0.00000000E+000
 3.15682000E-001 1.90000000E-001 0.00000000E+000
 3.12172000E-001 1.90000000E-001 0.00000000E+000
 3.08661000E-001 1.90000000E-001 0.00000000E+000
 3.05151000E-001 1.90000000E-001 0.00000000E+000
 3.01641000E-001 1.90000000E-001 0.00000000E+000
 2.98131000E-001 1.90000000E-001 0.00000000E+000
 2.94621000E-001 1.90000000E-001 0.00000000E+000
 2.91111000E-001 1.90000000E-001 0.00000000E+000
 2.87601000E-001 1.90000000E-001 0.00000000E+000
 2.84091000E-001 1.90000000E-001 0.00000000E+000
 2.80581000E-001 1.90000000E-001 0.00000000E+000
 2.77071000E-001 1.90000000E-001 0.00000000E+000
 2.73560000E-001 1.90000000E-001 0.00000000E+000
 2.70050000E-001 1.90000000E-001 0.00000000E+000
 2.66540000E-001 1.90000000E-001 0.00000000E+000
 2.63030000E-001 1.90000000E-001 0.00000000E+000
 2.59520000E-001 1.90000000E-001 0.00000000E+000
 2.56010000E-001 1.90000000E-001 0.00000000E+000
 2.52500000E-001 1.90000000E-001 0.00000000E+000
 2.48990000E-001 1.90000000E-001 0.00000000E+000
 2.48990000E-001 1.91333000E-001 0.00000000E+000
 2.48990000E-001 1.92667000E-001 0.00000000E+000
 2.48990000E-001 1.94000000E-001 0.00000000E+000
 2.48990000E-001 1.95333000E-001 0.00000000E+000
 2.48990000E-001 1.96667000E-001 0.00000000E+000
 2.48990000E-001 1.98000000E-001 0.00000000E+000
 2.48990000E-001 1.99333000E-001 0.00000000E+000
 2.48990000E-001 2.00667000E-001 0.00000000E+000
 2.48990000E-001 2.02000000E-001 0.00000000E+000
 2.48990000E-001 2.03333000E-001 0.00000000E+000
 2.48990000E-001 2.04667000E-001 0.00000000E+000
 2.48990000E-001 2.06000000E-001 0.00000000E+000
 2.48990000E-001 2.07333000E-001 0.00000000E+000
 2.48990000E-001 2.08667000E-001 0.00000000E+000
 2.48990000E-001 2.10000000E-001 0.00000000E+000
 2.52500000E-001 2.10000000E-001 0.00000000E+000
 2.56010000E-001 2.10000000E-001 0.00000000E+000
 2.59520000E-001 2.10000000E-001 0.00000000E+000
 2.63030000E-001 2.10000000E-001 0.00000000E+000
 2.66540000E-001 2.10000000E-001 0.00000000E+000
 2.70050000E-001 2.10000000E-001 0.00000000E+000
 2.73560000E-001 2.10000000E-001 0.00000000E+000
 2.77071000E-001 2.10000000E-001 0.00000000E+000
 2.80581000E-001 2.10000000E-001 0.00000000E+000
 2.84091000E-001 2.10000000E-001 0.00000000E+000
 2.87601000E-001 2.10000000E-001 0.00000000E+000
 2.91111000E-001 2.10000000E-001 0.00000000E+000
 2.94621000E-001 2.10000000E-001 0.00000000E+000
 2.98131000E-001 2.10000000E-001 0.00000000E+000
 3.01641000E-001 2.10000000E-001 0.00000000E+000
 3.05151000E-001 2.10000000E-001 0.00000000E+000
 3.08661000E-001 2.10000000E-001 0.00000000E+000
 3.12172000E-001 2.10000000E-001 0.00000000E+000
 3.15682000E-001 2.10000000E-001 0.00000000E+000
 3.19192000E-001 2.10000000E-001 0.00000000E+000
 3.22702000E-001 2.10000000E-001 0.00000000E+000
 3.26212000E-001 2.10000000E-001 0.00000000E+000
 3.29722000E-001 2.10000000E-001 0.00000000E+000
 3.33232000E-001 2.10000000E-001 0.00000000E+000
 3.36742000E-001 2.10000000E-001 0.00000000E+000
 3.40252000E-001 2.10000000E-001 0.00000000E+000
 3.43763000E-001 2.10000000E-001 0.00000000E+000
 3.47273000E-001 2.10000000E-001 0.00000000E+000
 3.50783000E-001 2.10000000E-001 0.00000000E+000
 3.54293000E-001 2.10000000E-001 0.00000000E+000
 3.57803000E-001 2.10000000E-001 0.00000000E+000
 3.61313000E-001 2.10000000E-001 0.00000000E+000
 3.64823000E-001 2.10000000E-001 0.00000000E+000
 3.68333000E-001 2.10000000E-001 0.00000000E+000
 3.71843000E-001 2.10000000E-001 0.00000000E+000
 3.75353000E-001 2.10000000E-001 0.00000000E+000
 3.78864000E-001 2.10000000E-001 0.00000000E+000
 3.82374000E-001 2.10000000E-001 0.00000000E+000
 3.85884000E-001 2.10000000E-001 0.00000000E+000
 3.89394000E-001 2.10000000E-001 0.00000000E+000
 3.92904000E-001 2.10000000E-001 0.00000000E+000
 3.96414000E-001 2.10000000E-001 0.00000000E+000
 3.99924000E-001 2.10000000E-001 0.00000000E+000
 4.03434000E-001 2.10000000E-001 0.00000000E+000
 4.06944000E-001 2.10000000E-001 0.00000000E+000
 4.10455000E-001 2.10000000E-001 0.00000000E+000
 4.13965000E-001 2.10000000E-001 0.00000000E+000
 4.17475000E-001 2.10000000E-001 0.00000000E+000
 4.20985000E-001 2.10000000E-001 0.00000000E+000
 4.24495000E-001 2.10000000E-001 0.00000000E+000
 4.28005000E-001 2.10000000E-001 0.00000000E+000
 4.31515000E-001 2.10000000E-001 0.00000000E+000
 4.35025000E-001 2.10000000E-001 0.00000000E+000
 4.38535000E-001 2.10000000E-001 0.00000000E+000
 4.42045000E-001 2.10000000E-001 0.00000000E+000
 4.45556000E-001 2.10000000E-001 0.00000000E+000
 4.49066000E-001 2.10000000E-001 0.00000000E+000
 4.52576000E-001 2.10000000E-001 0.00000000E+000
 4.56086000E-001 2.10000000E-001 0.00000000E+000
 4.59596000E-001 2.10000000E-001 0.00000000E+000
 4.63106000E-001 2.10000000E-001 0.00000000E+000
 4.66616000E-001 2.10000000E-001 0.00000000E+000
 4.70126000E-001 2.10000000E-001 0.00000000E+000
 4.73636000E-001 2.10000000E-001 0.00000000E+000
 4.77146000E-001 2.10000000E-001 0.00000000E+000
 4.80657000E-001 2.10000000E-001 0.00000000E+000
 4.84167000E-001 2.10000000E-001 0.00000000E+000
 4.87677000E-001 2.10000000E-001 0.00000000E+000
 4.91187000E-001 2.10000000E-001 0.00000000E+000
 4.94697000E-001 2.10000000E-001 0.00000000E+000
[...]
POINT_DATA 3232
VECTORS DISP double
 -8.2810800E-004  1.7248800E-002  1.1212800E-004
 -7.6287500E-004  1.7248300E-002  1.1208200E-004
 -7.0139300E-004  1.7250000E-002  1.1194000E-004
 -6.3785000E-004  1.7251300E-002  1.1173700E-004
 -5.7519600E-004  1.7252900E-002  1.1150200E-004
 -5.1193700E-004  1.7254400E-002  1.1123900E-004
 -4.4890100E-004  1.7255900E-002  1.1096200E-004
 -3.8572900E-004  1.7257400E-002  1.1067600E-004
 -3.2257900E-004  1.7259000E-002  1.1039400E-004
 -2.5936300E-004  1.7260500E-002  1.1012500E-004
 -1.9616000E-004  1.7262000E-002  1.0987800E-004
 -1.3299900E-004  1.7263500E-002  1.0966400E-004
 -6.9627800E-005  1.7265100E-002  1.0948900E-004
 -6.6071400E-006  1.7266600E-002  1.0936100E-004
  5.7096900E-005  1.7268200E-002  1.0928000E-004
  1.1961900E-004  1.7269500E-002  1.0924800E-004
  1.2336200E-004  1.7103000E-002  1.0926000E-004
  1.2601700E-004  1.6936200E-002  1.0928000E-004
  1.2931200E-004  1.6769700E-002  1.0929300E-004
  1.3221300E-004  1.6602900E-002  1.0929300E-004
  1.3540800E-004  1.6436400E-002  1.0927200E-004
  1.3852900E-004  1.6269600E-002  1.0922300E-004
  1.4193700E-004  1.6102900E-002  1.0913900E-004
  1.4552700E-004  1.5936100E-002  1.0901900E-004
  1.4950100E-004  1.5769000E-002  1.0886400E-004
  1.5386400E-004  1.5601500E-002  1.0867500E-004
  1.5871900E-004  1.5433500E-002  1.0845800E-004
  1.6412000E-004  1.5264800E-002  1.0822100E-004
  1.7010300E-004  1.5095100E-002  1.0797300E-004
  1.7673900E-004  1.4924400E-002  1.0772300E-004
  1.8401100E-004  1.4752200E-002  1.0748200E-004
  1.9198900E-004  1.4578300E-002  1.0726100E-004
  2.0062100E-004  1.4402700E-002  1.0707300E-004
  2.0995600E-004  1.4224900E-002  1.0692900E-004
  2.1992600E-004  1.4044900E-002  1.0684000E-004
  2.3054500E-004  1.3862300E-002  1.0681600E-004
  2.4174400E-004  1.3677200E-002  1.0686700E-004
  2.5349300E-004  1.3489000E-002  1.0700300E-004
  2.6573400E-004  1.3298000E-002  1.0722900E-004
  2.7839500E-004  1.3103800E-002  1.0755300E-004
  2.9143000E-004  1.2906400E-002  1.0798000E-004
  3.0473300E-004  1.2705700E-002  1.0851200E-004
  3.1826600E-004  1.2501700E-002  1.0915100E-004
  3.3191000E-004  1.2294500E-002  1.0989700E-004
  3.4562100E-004  1.2083900E-002  1.1075000E-004
  3.5928700E-004  1.1870300E-002  1.1170400E-004
  3.7284400E-004  1.1653400E-002  1.1275800E-004
  3.8621100E-004  1.1433700E-002  1.1390400E-004
  3.9929600E-004  1.1211000E-002  1.1513500E-004
  4.1205300E-004  1.0985700E-002  1.1644300E-004
  4.2437000E-004  1.0758000E-002  1.1781800E-004
  4.3623300E-004  1.0528000E-002  1.1925100E-004
  4.4752200E-004  1.0296100E-002  1.2072900E-004
  4.5824400E-004  1.0062300E-002  1.2224100E-004
  4.6829000E-004  9.8272100E-003  1.2377500E-004
  4.7766600E-004  9.5907500E-003  1.2531800E-004
  4.8630400E-004  9.3536300E-003  1.2685600E-004
  4.9418400E-004  9.1157000E-003  1.2837800E-004
  5.0129900E-004  8.8776500E-003  1.2987000E-004
  5.0759300E-004  8.6395000E-003  1.3131900E-004
  5.1311800E-004  8.4016900E-003  1.3271500E-004
  5.1779400E-004  8.1645000E-003  1.3404500E-004
  5.2171300E-004  7.9280800E-003  1.3529800E-004
  5.2479400E-004  7.6930000E-003  1.3646400E-004
  5.2713700E-004  7.4590800E-003  1.3753500E-004
  5.2869500E-004  7.2271100E-003  1.3850000E-004
  5.2953400E-004  6.9967400E-003  1.3935400E-004
  5.2967400E-004  6.7687700E-003  1.4009000E-004
  5.2912400E-004  6.5428800E-003  1.4070200E-004
  5.2797400E-004  6.3196500E-003  1.4118600E-004
  5.2617900E-004  6.0990300E-003  1.4154000E-004
  5.2388300E-004  5.8811900E-003  1.4176000E-004
  5.2100600E-004  5.6664200E-003  1.4184500E-004
  5.1771400E-004  5.4545000E-003  1.4179600E-004
  5.1392600E-004  5.2460200E-003  1.4161200E-004
  5.0978400E-004  5.0404400E-003  1.4129600E-004
  5.0524600E-004  4.8385200E-003  1.4084900E-004
  5.0039500E-004  4.6396000E-003  1.4027400E-004
  4.9524600E-004  4.4443800E-003  1.3957300E-004
  4.8981700E-004  4.2523200E-003  1.3875300E-004
  4.8416600E-004  4.0638600E-003  1.3781500E-004
  4.7826800E-004  3.8787600E-003  1.3676500E-004
  4.7218900E-004  3.6971000E-003  1.3560800E-004
  4.6590000E-004  3.5189600E-003  1.3434900E-004
  4.5943400E-004  3.3441000E-003  1.3299200E-004
  4.5279600E-004  3.1728500E-003  1.3154100E-004
  4.4594600E-004  3.0048400E-003  1.3000300E-004
  4.3895700E-004  2.8403900E-003  1.2838000E-004
  4.3169300E-004  2.6792700E-003  1.2667700E-004
  4.2430200E-004  2.5215900E-003  1.2489700E-004
  4.1656000E-004  2.3674400E-003  1.2304400E-004
  4.0867500E-004  2.2165500E-003  1.2111800E-004
  4.0035300E-004  2.0695000E-003  1.1912100E-004
  3.9183700E-004  1.9255500E-003  1.1705200E-004
  3.8279600E-004  1.7857800E-003  1.1491100E-004
  3.7347700E-004  1.6490600E-003  1.1269400E-004
  3.6353800E-004  1.5168700E-003  1.1039500E-004
  3.5321300E-004  1.3878300E-003  1.0800900E-004
  3.4216100E-004  1.2636400E-003  1.0552400E-004
  3.3059900E-004  1.1428500E-003  1.0292700E-004
  3.1818700E-004  1.0273100E-003  1.0020100E-004
  3.0512900E-004  9.1550900E-004  9.7323500E-005
  2.9109000E-004  8.0946900E-004  9.4267400E-005
  2.7624700E-004  7.0753200E-004  9.0995200E-005
  2.6030600E-004  6.1210200E-004  8.7466200E-005
  2.4335300E-004  5.2107900E-004  8.3621300E-005
  2.2525100E-004  4.3763700E-004  7.9397700E-005
  2.0581200E-004  3.5874700E-004  7.4704200E-005
  1.8534100E-004  2.8896800E-004  6.9443800E-005
  1.6295300E-004  2.2358900E-004  6.3474900E-005
  1.4001800E-004  1.6951200E-004  5.6647900E-005
  1.1404000E-004  1.1911600E-004  4.8734800E-005
  8.8947600E-005  8.3493500E-005  3.9509900E-005
  5.8739400E-005  4.9009700E-005  2.8588600E-005
  3.4670200E-005  3.5402800E-005  1.5708300E-005
  0.0000000E+000  0.0000000E+000  0.0000000E+000
  0.0000000E+000  0.0000000E+000  0.0000000E+000
  0.0000000E+000  0.0000000E+000  0.0000000E+000
  0.0000000E+000  0.0000000E+000  0.0000000E+000
  0.0000000E+000  0.0000000E+000  0.0000000E+000
  0.0000000E+000  0.0000000E+000  0.0000000E+000
  0.0000000E+000  0.0000000E+000  0.0000000E+000
  0.0000000E+000  0.0000000E+000  0.0000000E+000
  0.0000000E+000  0.0000000E+000  0.0000000E+000
  0.0000000E+000  0.0000000E+000  0.0000000E+000
  0.0000000E+000  0.0000000E+000  0.0000000E+000
  0.0000000E+000  0.0000000E+000  0.0000000E+000
  0.0000000E+000  0.0000000E+000  0.0000000E+000
  0.0000000E+000  0.0000000E+000  0.0000000E+000
  0.0000000E+000  0.0000000E+000  0.0000000E+000
  0.0000000E+000  0.0000000E+000  0.0000000E+000
 -3.4093900E-005  3.6413400E-005 -2.6357000E-006
 -5.6552000E-005  4.9494100E-005 -2.9603900E-006
 -8.5948400E-005  8.3857300E-005 -1.8264800E-006
 -1.0991800E-004  1.1887700E-004  5.3311800E-007
 -1.3522800E-004  1.6896000E-004  3.7450800E-006
 -1.5746200E-004  2.2216200E-004  7.6017700E-006
 -1.7952000E-004  2.8721700E-004  1.1888600E-005
 -1.9976700E-004  3.5589000E-004  1.6469000E-005
 -2.1930900E-004  4.3447100E-004  2.1216400E-005
 -2.3771900E-004  5.1669000E-004  2.6043600E-005
 -2.5525200E-004  6.0735900E-004  3.0875200E-005
 -2.7206200E-004  7.0159900E-004  3.5657000E-005
 -2.8799000E-004  8.0304800E-004  4.0344500E-005
 -3.0346100E-004  9.0805000E-004  4.4906100E-005
 -3.1813100E-004  1.0191700E-003  4.9316200E-005
 -3.3252400E-004  1.1338800E-003  5.3558800E-005
 -3.4624500E-004  1.2537800E-003  5.7620100E-005
 -3.5980900E-004  1.3773300E-003  6.1494700E-005
 -3.7285700E-004  1.5053300E-003  6.5176400E-005
 -3.8582300E-004  1.6370000E-003  6.8666900E-005
 -3.9844200E-004  1.7726300E-003  7.1964800E-005
 -4.1102600E-004  1.9118400E-003  7.5076500E-005
 -4.2342000E-004  2.0547800E-003  7.8004700E-005
 -4.3582000E-004  2.2011200E-003  8.0757700E-005
 -4.4816000E-004  2.3511600E-003  8.3341700E-005
 -4.6054600E-004  2.5043900E-003  8.5765600E-005
 -4.7296800E-004  2.6613700E-003  8.8038400E-005
 -4.8548100E-004  2.8213800E-003  9.0169100E-005
 -4.9808500E-004  2.9852200E-003  9.2168700E-005
 -5.1082900E-004  3.1520000E-003  9.4045900E-005
 -5.2368200E-004  3.3226300E-003  9.5812700E-005
 -5.3671900E-004  3.4962500E-003  9.7478000E-005
 -5.4985600E-004  3.6736400E-003  9.9053600E-005
 -5.6320100E-004  3.8541600E-003  1.0054900E-004
 -5.7662300E-004  4.0383000E-003  1.0197500E-004
 -5.9024600E-004  4.2257600E-003  1.0334100E-004
 -6.0391800E-004  4.4166300E-003  1.0465600E-004
 -6.1774900E-004  4.6109900E-003  1.0593100E-004
 -6.3159400E-004  4.8085700E-003  1.0717300E-004
 -6.4552300E-004  5.0097000E-003  1.0839200E-004
 -6.5942800E-004  5.2139000E-003  1.0959200E-004
 -6.7331300E-004  5.4215500E-003  1.1078300E-004
 -6.8712200E-004  5.6321900E-003  1.1197000E-004
 -7.0079500E-004  5.8460400E-003  1.1315700E-004
 -7.1431900E-004  6.0627800E-003  1.1434900E-004
 -7.2759100E-004  6.2823800E-003  1.1555000E-004
 -7.4061900E-004  6.5047400E-003  1.1676100E-004
 -7.5328200E-004  6.7295300E-003  1.1798400E-004
 -7.6558600E-004  6.9568700E-003  1.1921900E-004
 -7.7742600E-004  7.1861800E-003  1.2046400E-004
 -7.8877800E-004  7.4176800E-003  1.2171800E-004
 -7.9957900E-004  7.6507100E-003  1.2297800E-004
 -8.0976500E-004  7.8854200E-003  1.2424000E-004
 -8.1932100E-004  8.1212400E-003  1.2549900E-004
 -8.2815000E-004  8.3581100E-003  1.2674800E-004
 -8.3627800E-004  8.5956700E-003  1.2798200E-004
 -8.4359500E-004  8.8335900E-003  1.2919100E-004
 -8.5015000E-004  9.0717400E-003  1.3036900E-004
 -8.5584500E-004  9.3095400E-003  1.3150500E-004
 -8.6072900E-004  9.5470600E-003  1.3259200E-004
 -8.6474600E-004  9.7835900E-003  1.3361700E-004
 -8.6792100E-004  1.0019300E-002  1.3457300E-004
 -8.7025900E-004  1.0253400E-002  1.3544800E-004
 -8.7175900E-004  1.0486000E-002  1.3623400E-004
 -8.7247900E-004  1.0716600E-002  1.3692000E-004
 -8.7240500E-004  1.0945100E-002  1.3749700E-004
 -8.7163200E-004  1.1171300E-002  1.3795600E-004
 -8.7015400E-004  1.1394700E-002  1.3829100E-004
 -8.6807600E-004  1.1615600E-002  1.3849400E-004
 -8.6542600E-004  1.1833200E-002  1.3855900E-004
 -8.6228600E-004  1.2048000E-002  1.3848400E-004
 -8.5874300E-004  1.2259500E-002  1.3826400E-004
 -8.5483500E-004  1.2467800E-002  1.3790000E-004
 -8.5070900E-004  1.2672700E-002  1.3739100E-004
 -8.4636000E-004  1.2874300E-002  1.3674100E-004
 -8.4197700E-004  1.3072700E-002  1.3595500E-004
 -8.3752700E-004  1.3267600E-002  1.3503800E-004
 -8.3321400E-004  1.3459600E-002  1.3400100E-004
 -8.2899200E-004  1.3648300E-002  1.3285200E-004
 -8.2505300E-004  1.3834400E-002  1.3160600E-004
 -8.2135100E-004  1.4017400E-002  1.3027600E-004
 -8.1805200E-004  1.4198100E-002  1.2888000E-004
 -8.1510600E-004  1.4376200E-002  1.2743300E-004
 -8.1265500E-004  1.4552400E-002  1.2595500E-004
 -8.1062600E-004  1.4726400E-002  1.2446700E-004
 -8.0915500E-004  1.4899000E-002  1.2298700E-004
 -8.0812000E-004  1.5069800E-002  1.2153600E-004
 -8.0766900E-004  1.5239900E-002  1.2013500E-004
 -8.0761400E-004  1.5408400E-002  1.1880300E-004
 -8.0813500E-004  1.5576800E-002  1.1755800E-004
 -8.0895000E-004  1.5743900E-002  1.1641800E-004
 -8.1031700E-004  1.5911500E-002  1.1539500E-004
 -8.1180500E-004  1.6077800E-002  1.1450500E-004
 -8.1384300E-004  1.6245300E-002  1.1375200E-004
 -8.1571900E-004  1.6411200E-002  1.1314600E-004
 -8.1827100E-004  1.6579200E-002  1.1268500E-004
 -8.2012500E-004  1.6744700E-002  1.1237000E-004
 -8.2315200E-004  1.6913700E-002  1.1218500E-004
 -8.2418200E-004  1.7078200E-002  1.1212100E-004
 -7.6189100E-004  1.7081800E-002  1.1208100E-004
 -7.5916700E-004  1.6914000E-002  1.1214700E-004
 -7.5707100E-004  1.6747700E-002  1.1233400E-004
 -7.5471900E-004  1.6580000E-002  1.1264700E-004
 -7.5249800E-004  1.6413800E-002  1.1310300E-004
 -7.5044400E-004  1.6246500E-002  1.1370200E-004
 -7.4849300E-004  1.6080300E-002  1.1444400E-004
 -7.4686900E-004  1.5913000E-002  1.1532200E-004
 -7.4543500E-004  1.5746400E-002  1.1632900E-004
 -7.4440800E-004  1.5578600E-002  1.1745200E-004
 -7.4367000E-004  1.5411000E-002  1.1867800E-004
 -7.4337700E-004  1.5242000E-002  1.1998900E-004
 -7.4345100E-004  1.5072600E-002  1.2136800E-004
 -7.4396900E-004  1.4901500E-002  1.2279600E-004
 -7.4489300E-004  1.4729400E-002  1.2425400E-004
 -7.4622700E-004  1.4555200E-002  1.2572000E-004
 -7.4795800E-004  1.4379400E-002  1.2717500E-004
 -7.5003700E-004  1.4201200E-002  1.2860100E-004
 -7.5245400E-004  1.4020900E-002  1.2997800E-004
 -7.5513800E-004  1.3837800E-002  1.3129000E-004
 -7.5805200E-004  1.3652200E-002  1.3252000E-004
 -7.6113900E-004  1.3463400E-002  1.3365500E-004
 -7.6431500E-004  1.3271700E-002  1.3468200E-004
 -7.6755200E-004  1.3076700E-002  1.3559100E-004
 -7.7072300E-004  1.2878500E-002  1.3637200E-004
 -7.7382500E-004  1.2676900E-002  1.3702100E-004
 -7.7671300E-004  1.2472000E-002  1.3753100E-004
 -7.7938400E-004  1.2263900E-002  1.3790000E-004
 -7.8171200E-004  1.2052300E-002  1.3812800E-004
 -7.8366700E-004  1.1837700E-002  1.3821500E-004
 -7.8517500E-004  1.1619900E-002  1.3816400E-004
 -7.8616100E-004  1.1399100E-002  1.3797800E-004
 -7.8661500E-004  1.1175500E-002  1.3766400E-004
 -7.8642500E-004  1.0949400E-002  1.3722700E-004
 -7.8563400E-004  1.0720800E-002  1.3667500E-004
 -7.8411300E-004  1.0490000E-002  1.3601700E-004
 -7.8193500E-004  1.0257400E-002  1.3526100E-004
 -7.7898800E-004  1.0023000E-002  1.3441600E-004
 -7.7533900E-004  9.7873200E-003  1.3349300E-004
 -7.7092700E-004  9.5504800E-003  1.3250000E-004
 -7.6578500E-004  9.3129500E-003  1.3144800E-004
 -7.5992100E-004  9.0748300E-003  1.3034600E-004
 -7.5332700E-004  8.8366000E-003  1.2920200E-004
 -7.4607200E-004  8.5984300E-003  1.2802700E-004
 -7.3811800E-004  8.3606900E-003  1.2682700E-004
 -7.2957600E-004  8.1236400E-003  1.2561100E-004
 -7.2040100E-004  7.8875400E-003  1.2438400E-004
 -7.1071100E-004  7.6527400E-003  1.2315300E-004
 -7.0048500E-004  7.4193700E-003  1.2192300E-004
 -6.8981500E-004  7.1878300E-003  1.2069700E-004
 -6.7872700E-004  6.9581700E-003  1.1947800E-004
 -6.6726400E-004  6.7307900E-003  1.1826800E-004
 -6.5551200E-004  6.5057100E-003  1.1706900E-004
 -6.4345500E-004  6.2832400E-003  1.1587900E-004
 -6.3122800E-004  6.0634500E-003  1.1469800E-004
 -6.1877800E-004  5.8465300E-003  1.1352300E-004
 -6.0625400E-004  5.6326000E-003  1.1235200E-004
 -5.9359900E-004  5.4217100E-003  1.1117900E-004
 -5.8094000E-004  5.2140700E-003  1.1000100E-004
 -5.6824800E-004  5.0095900E-003  1.0881100E-004
 -5.5559400E-004  4.8085000E-003  1.0760200E-004
 -5.4300300E-004  4.6106900E-003  1.0636800E-004
 -5.3047200E-004  4.4163100E-003  1.0510000E-004
 -5.1808100E-004  4.2253300E-003  1.0379000E-004
 -5.0576700E-004  4.0377300E-003  1.0242900E-004
 -4.9363700E-004  3.8536400E-003  1.0100700E-004
 -4.8160200E-004  3.6728500E-003  9.9515300E-005
 -4.6975700E-004  3.4956500E-003  9.7943300E-005
 -4.5803100E-004  3.3216400E-003  9.6281000E-005
 -4.4646000E-004  3.1512900E-003  9.4518000E-005
 -4.3503500E-004  2.9840800E-003  9.2644200E-005
 -4.2370000E-004  2.8205300E-003  9.0649100E-005
 -4.1252400E-004  2.6601000E-003  8.8523100E-005
 -4.0136200E-004  2.5033500E-003  8.6256200E-005
 -3.9034400E-004  2.3497700E-003  8.3839000E-005
 -3.7926900E-004  2.1998700E-003  8.1262800E-005
 -3.6828400E-004  2.0532300E-003  7.8519300E-005
 -3.5718100E-004  1.9103600E-003  7.5601300E-005
 -3.4607400E-004  1.7708600E-003  7.2502100E-005
 -3.3480200E-004  1.6353100E-003  6.9217100E-005
 -3.2339500E-004  1.5032300E-003  6.5742400E-005
 -3.1178400E-004  1.3754500E-003  6.2076700E-005
 -2.9988200E-004  1.2512200E-003  5.8220600E-005
 -2.8773300E-004  1.1318200E-003  5.4177900E-005
 -2.7512000E-004  1.0160300E-003  4.9955900E-005
 -2.6221600E-004  9.0579700E-004  4.5566100E-005
 -2.4864800E-004  7.9922700E-004  4.1025600E-005
 -2.3476300E-004  6.9912100E-004  3.6358000E-005
 -2.1995600E-004  6.0275200E-004  3.1595500E-005
 -2.0487400E-004  5.1395300E-004  2.6779700E-005
 -1.8848000E-004  4.2895800E-004  2.1965800E-005
 -1.7202800E-004  3.5288800E-004  1.7224000E-005
 -1.5358500E-004  2.8062100E-004  1.2644200E-005
 -1.3569100E-004  2.1898400E-004  8.3418800E-006
 -1.1453800E-004  1.6096100E-004  4.4611400E-006
 -9.5353400E-005  1.1581000E-004  1.1920200E-006
 -7.0529100E-005  7.3906900E-005 -1.2424000E-006
 -5.0987400E-005  4.7385400E-005 -2.5261800E-006
 -2.1695100E-005  2.3938900E-005 -2.3946500E-006
 -6.9791100E-004  1.7083400E-002  1.1195800E-004
 -6.9621400E-004  1.6916000E-002  1.1203900E-004
 -6.9356600E-004  1.6749100E-002  1.1222700E-004
 -6.9138200E-004  1.6582200E-002  1.1253600E-004
 -6.8915300E-004  1.6415200E-002  1.1297700E-004
 -6.8698300E-004  1.6248700E-002  1.1355400E-004
 -6.8510900E-004  1.6081800E-002  1.1426600E-004
 -6.8325400E-004  1.5915300E-002  1.1510800E-004
 -6.8181400E-004  1.5748100E-002  1.1607100E-004
 -6.8046700E-004  1.5581000E-002  1.1714500E-004
 -6.7957000E-004  1.5412900E-002  1.1831600E-004
 -6.7885500E-004  1.5244500E-002  1.1956900E-004
 -6.7858200E-004  1.5074800E-002  1.2088700E-004
 -6.7855500E-004  1.4904200E-002  1.2225100E-004
 -6.7893500E-004  1.4731800E-002  1.2364400E-004
 -6.7958500E-004  1.4558100E-002  1.2504700E-004
 -6.8058300E-004  1.4382200E-002  1.2644000E-004
 -6.8182800E-004  1.4204400E-002  1.2780600E-004
 -6.8335200E-004  1.4024000E-002  1.2912800E-004
 -6.8505300E-004  1.3841200E-002  1.3038900E-004
 -6.8695300E-004  1.3655500E-002  1.3157400E-004
 -6.8892200E-004  1.3467000E-002  1.3267100E-004
 -6.9100100E-004  1.3275300E-002  1.3366800E-004
 -6.9302100E-004  1.3080500E-002  1.3455400E-004
 -6.9504600E-004  1.2882300E-002  1.3532300E-004
 -6.9688600E-004  1.2680800E-002  1.3596600E-004
 -6.9860500E-004  1.2476000E-002  1.3648100E-004
 -7.0003200E-004  1.2267900E-002  1.3686400E-004
 -7.0119600E-004  1.2056400E-002  1.3711500E-004
 -7.0198500E-004  1.1841700E-002  1.3723400E-004
 -7.0236700E-004  1.1623900E-002  1.3722400E-004
 -7.0231300E-004  1.1403200E-002  1.3708800E-004
 -7.0172400E-004  1.1179600E-002  1.3683100E-004
 -7.0064800E-004  1.0953300E-002  1.3646000E-004
 -6.9894700E-004  1.0724700E-002  1.3597900E-004
 -6.9671000E-004  1.0493900E-002  1.3539900E-004
 -6.9380300E-004  1.0261100E-002  1.3472600E-004
 -6.9031600E-004  1.0026700E-002  1.3396800E-004
 -6.8615900E-004  9.7908200E-003  1.3313600E-004
 -6.8138700E-004  9.5539000E-003  1.3223700E-004
 -6.7598300E-004  9.3161700E-003  1.3128100E-004
 -6.6994500E-004  9.0779500E-003  1.3027600E-004
 -6.6333500E-004  8.8395300E-003  1.2923000E-004
 -6.5610200E-004  8.6012100E-003  1.2815100E-004
 -6.4836700E-004  8.3633000E-003  1.2704700E-004
 -6.4005300E-004  8.1260700E-003  1.2592500E-004
 -6.3130200E-004  7.8898200E-003  1.2478900E-004
 -6.2205400E-004  7.6548100E-003  1.2364600E-004
 -6.1242500E-004  7.4213000E-003  1.2250000E-004
 -6.0240700E-004  7.1895400E-003  1.2135500E-004
 -5.9205900E-004  6.9597600E-003  1.2021200E-004
 -5.8144300E-004  6.7321600E-003  1.1907300E-004
 -5.7054800E-004  6.5069600E-003  1.1793900E-004
 -5.5950200E-004  6.2843000E-003  1.1681100E-004
 -5.4823800E-004  6.0643800E-003  1.1568500E-004
 -5.3691800E-004  5.8473100E-003  1.1456100E-004
 -5.2545800E-004  5.6332300E-003  1.1343400E-004
 -5.1400600E-004  5.4222400E-003  1.1230200E-004
 -5.0250900E-004  5.2144400E-003  1.1115900E-004
 -4.9105100E-004  5.0098800E-003  1.1000000E-004
 -4.7964800E-004  4.8086500E-003  1.0881800E-004
 -4.6829200E-004  4.6107600E-003  1.0760700E-004
 -4.5708000E-004  4.4162800E-003  1.0635900E-004
 -4.4591800E-004  4.2251900E-003  1.0506500E-004
 -4.3496000E-004  4.0375600E-003  1.0371900E-004
 -4.2406100E-004  3.8533100E-003  1.0230900E-004
 -4.1338500E-004  3.6725500E-003  1.0082900E-004
 -4.0279100E-004  3.4951300E-003  9.9266800E-005
 -3.9239600E-004  3.3212300E-003  9.7614200E-005
 -3.8211500E-004  3.1506200E-003  9.5861500E-005
 -3.7197600E-004  2.9835400E-003  9.3998600E-005
 -3.6198000E-004  2.8197000E-003  9.2016100E-005
 -3.5205500E-004  2.6594300E-003  8.9904300E-005
 -3.4227800E-004  2.5023700E-003  8.7654100E-005
 -3.3250700E-004  2.3489300E-003  8.5256500E-005
 -3.2284700E-004  2.1987200E-003  8.2703100E-005
 -3.1315300E-004  2.0522300E-003  7.9986000E-005
 -3.0348200E-004  1.9090000E-003  7.7098200E-005