# vtk DataFile Version 3.0
MMH: CalculiX output 'object.frd' file to 'vtk' format
ASCII
DATASET UNSTRUCTURED_GRID
POINTS 3232 double
 6.00000000E-001 2.10000000E-001 0.00000000E+000
 6.00000000E-001 2.08667000E-001 0.00000000E+000
 6.00000000E-001 2.07333000E-001 0.00000000E+000
 6.00000000E-001 2.06000000E-001 0.00000000E+000
 6.00000000E-001 2.04667000E-001 0.00000000E+000
 6.00000000E-001 2.03333000E-001 0.00000000E+000
 6.00000000E-001 2.02000000E-001 0.00000000E+000
 6.00000000E-001 2.00667000E-001 0.00000000E+000
 6.00000000E-001 1.99333000E-001 0.00000000E+000
 6.00000000E-001 1.98000000E-001 0.00000000E+000
 6.00000000E-001 1.96667000E-001 0.00000000E+000
 6.00000000E-001 1.95333000E-001 0.00000000E+000
 6.00000000E-001 1.94000000E-001 0.00000000E+000
 6.00000000E-001 1.92667000E-001 0.00000000E+000
 6.00000000E-001 1.91333000E-001 0.00000000E+000
 6.00000000E-001 1.90000000E-001 0.00000000E+000
 5.96490000E-001 1.90000000E-001 0.00000000E+000
 5.92980000E-001 1.90000000E-001 0.00000000E+000
 5.89470000E-001 1.90000000E-001 0.00000000E+000
 5.85960000E-001 1.90000000E-001 0.00000000E+000
 5.82449000E-001 1.90000000E-001 0.00000000E+000
 5.78939000E-001 1.90000000E-001 0.00000000E+000
 5.75429000E-001 1.90000000E-001 0.00000000E+000
 5.71919000E-001 1.90000000E-001 0.00000000E+000
 5.68409000E-001 1.90000000E-001 0.00000000E+000
 5.64899000E-001 1.90000000E-001 0.00000000E+000
 5.61389000E-001 1.90000000E-001 0.00000000E+000
 5.57879000E-001 1.90000000E-001 0.00000000E+000
 5.54369000E-001 1.90000000E-001 0.00000000E+000
 5.50859000E-001 1.90000000E-001 0.00000000E+000
 5.47348000E-001 1.90000000E-001 0.00000000E+000
 5.43838000E-001 1.90000000E-001 0.00000000E+000
 5.40328000E-001 1.90000000E-001 0.00000000E+000
 5.36818000E-001 1.90000000E-001 0.00000000E+000
 5.33308000E-001 1.90000000E-001 0.00000000E+000
 5.29798000E-001 1.90000000E-001 0.00000000E+000
 5.26288000E-001 1.90000000E-001 0.00000000E+000
 5.22778000E-001 1.90000000E-001 0.00000000E+000
 5.19268000E-001 1.90000000E-001 0.00000000E+000
 5.15758000E-001 1.90000000E-001 0.00000000E+000
 5.12247000E-001 1.90000000E-001 0.00000000E+000
 5.08737000E-001 1.90000000E-001 0.00000000E+000
 5.05227000E-001 1.90000000E-001 0.00000000E+000
 5.01717000E-001 1.90000000E-001 0.00000000E+000
 4.98207000E-001 1.90000000E-001 0.00000000E+000
 4.94697000E-001 1.90000000E-001 0.00000000E+000
 4.91187000E-001 1.90000000E-001 0.00000000E+000
 4.87677000E-001 1.90000000E-001 0.00000000E+000
 4.84167000E-001 1.90000000E-001 0.00000000E+000
 4.80657000E-001 1.90000000E-001 0.00000000E+000
 4.77146000E-001 1.90000000E-001 0.00000000E+000
 4.73636000E-001 1.90000000E-001 0.00000000E+000
 4.70126000E-001 1.90000000E-001 0.00000000E+000
 4.66616000E-001 1.90000000E-001 0.00000000E+000
 4.63106000E-001 1.90000000E-001 0.00000000E+000
 4.59596000E-001 1.90000000E-001 0.00000000E+000
 4.56086000E-001 1.90000000E-001 0.00000000E+000
 4.52576000E-001 1.90000000E-001 0.00000000E+000
 4.49066000E-001 1.90000000E-001 0.00000000E+000
 4.45556000E-001 1.90000000E-001 0.00000000E+000
 4.42045000E-001 1.90000000E-001 0.00000000E+000
 4.38535000E-001 1.90000000E-001 0.00000000E+000
 4.35025000E-001 1.90000000E-001 0.00000000E+000
 4.31515000E-001 1.90000000E-001 0.00000000E+000
 4.28005000E-001 1.90000000E-001 0.00000000E+000
 4.24495000E-001 1.90000000E-001 0.00000000E+000
 4.20985000E-001 1.90000000E-001 0.00000000E+000
 4.17475000E-001 1.90000000E-001 0.00000000E+000
 4.13965000E-001 1.90000000E-001 0.00000000E+000
 4.10455000E-001 1.90000000E-001 0.00000000E+000
 4.06944000E-001 1.90000000E-001 0.00000000E+000
 4.03434000E-001 1.90000000E-001 0.00000000E+000
 3.99924000E-001 1.90000000E-001 0.00000000E+000
 3.96414000E-001 1.90000000E-001 0.00000000E+000
 3.92904000E-001 1.90000000E-001 0.00000000E+000
 3.89394000E-001 1.90000000E-001 0.00000000E+000
 3.85884000E-001 1.90000000E-001 0.00000000E+000
 3.82374000E-001 1.90000000E-001 0.00000000E+000
 3.78864000E-001 1.90000000E-001 0.00000000E+000
 3.75353000E-001 1.90000000E-001 0.00000000E+000
 3.71843000E-001 1.90000000E-001 0.00000000E+000
 3.68333000E-001 1.90000000E-001 0.00000000E+000
 3.64823000E-001 1.90000000E-001 0.00000000E+000
 3.61313000E-001 1.90000000E-001 0.00000000E+000
 3.57803000E-001 1.90000000E-001 0.00000000E+000
 3.54293000E-001 1.90000000E-001 0.00000000E+000
 3.50783000E-001 1.90000000E-001 0.00000000E+000
 3.47273000E-001 1.90000000E-001 0.00000000E+000
 3.43763000E-001 1.90000000E-001 0.00000000E+000
 3.40252000E-001 1.90000000E-001 0.00000000E+000
 3.36742000E-001 1.90000000E-001 0.00000000E+000
 3.33232000E-001 1.90000000E-001 0.00000000E+000
 3.29722000E-001 1.90000000E-001 0.00000000E+000
 3.26212000E-001 1.90000000E-001 0.00000000E+000
 3.22702000E-001 1.90000000E-001 0.00000000E+000
 3.19192000E-001 1.90000000E-001 0.00000000E+000
 3.15682000E-001 1.90000000E-001 0.00000000E+000
 3.12172000E-001 1.90000000E-001 0.00000000E+000
 3.08661000E-001 1.90000000E-001 0.00000000E+000
 3.05151000E-001 1.90000000E-001 0.00000000E+000
 3.01641000E-001 1.90000000E-001 0.00000000E+000
 2.98131000E-001 1.90000000E-001 0.00000000E+000
 2.94621000E-001 1.90000000E-001 0.00000000E+000
 2.91111000E-001 1.90000000E-001 0.00000000E+000
 2.87601000E-001 1.90000000E-001 0.00000000E+000
 2.84091000E-001 1.90000000E-001 0.00000000E+000
 2.80581000E-001 1.90000000E-001 0.00000000E+000
 2.77071000E-001 1.90000000E-001 0.00000000E+000
 2.73560000E-001 1.90000000E-001 0.00000000E+000
 2.70050000E-001 1.90000000E-001 0.00000000E+000
 2.66540000E-001 1.90000000E-001 0.00000000E+000
 2.63030000E-001 1.90000000E-001 0.00000000E+000
 2.59520000E-001 1.90000000E-001 0.00000000E+000
 2.56010000E-001 1.90000000E-001 0.00000000E+000
 2.52500000E-001 1.90000000E-001 0.00000000E+000
 2.48990000E-001 1.90000000E-001 0.00000000E+000
 2.48990000E-001 1.91333000E-001 0.00000000E+000
 2.48990000E-001 1.92667000E-001 0.00000000E+000
 2.48990000E-001 1.94000000E-001 0.00000000E+000
 2.48990000E-001 1.95333000E-001 0.00000000E+000
 2.48990000E-001 1.96667000E-001 0.00000000E+000
 2.48990000E-001 1.98000000E-001 0.00000000E+000
 2.48990000E-001 1.99333000E-001 0.00000000E+000
 2.48990000E-001 2.00667000E-001 0.00000000E+000
 2.48990000E-001 2.02000000E-001 0.00000000E+000
 2.48990000E-001 2.03333000E-001 0.00000000E+000
 2.48990000E-001 2.04667000E-001 0.00000000E+000
 2.48990000E-001 2.06000000E-001 0.00000000E+000
 2.48990000E-001 2.07333000E-001 0.00000000E+000
 2.48990000E-001 2.08667000E-001 0.00000000E+000
 2.48990000E-001 2.10000000E-001 0.00000000E+000
 2.52500000E-001 2.10000000E-001 0.00000000E+000
 2.56010000E-001 2.10000000E-001 0.00000000E+000
 2.59520000E-001 2.10000000E-001 0.00000000E+000
 2.63030000E-001 2.10000000E-001 0.00000000E+000
 2.66540000E-001 2.10000000E-001 0.00000000E+000
 2.70050000E-001 2.10000000E-001 0.00000000E+000
 2.73560000E-001 2.10000000E-001 0.00000000E+000
 2.77071000E-001 2.10000000E-001 0.00000000E+000
 2.80581000E-001 2.10000000E-001 0.00000000E+000
 2.84091000E-001 2.10000000E-001 0.00000000E+000
 2.87601000E-001 2.10000000E-001 0.00000000E+000
 2.91111000E-001 2.10000000E-001 0.00000000E+000
 2.94621000E-001 2.10000000E-001 0.00000000E+000
 2.98131000E-001 2.10000000E-001 0.00000000E+000
 3.01641000E-001 2.10000000E-001 0.00000000E+000
 3.05151000E-001 2.10000000E-001 0.00000000E+000
 3.08661000E-001 2.10000000E-001 0.00000000E+000
 3.12172000E-001 2.10000000E-001 0.00000000E+000
 3.15682000E-001 2.10000000E-001 0.00000000E+000
 3.19192000E-001 2.10000000E-001 0.00000000E+000
 3.22702000E-001 2.10000000E-001 0.00000000E+000
 3.26212000E-001 2.10000000E-001 0.00000000E+000
 3.29722000E-001 2.10000000E-001 0.00000000E+000
 3.33232000E-001 2.10000000E-001 0.00000000E+000
 3.36742000E-001 2.10000000E-001 0.00000000E+000
 3.40252000E-001 2.10000000E-001 0.00000000E+000
 3.43763000E-001 2.10000000E-001 0.00000000E+000
 3.47273000E-001 2.10000000E-001 0.00000000E+000
 3.50783000E-001 2.10000000E-001 0.00000000E+000
 3.54293000E-001 2.10000000E-001 0.00000000E+000
 3.57803000E-001 2.10000000E-001 0.00000000E+000
 3.61313000E-001 2.10000000E-001 0.00000000E+000
 3.64823000E-001 2.10000000E-001 0.00000000E+000
 3.68333000E-001 2.10000000E-001 0.00000000E+000
 3.71843000E-001 2.10000000E-001 0.00000000E+000
 3.75353000E-001 2.10000000E-001 0.00000000E+000
 3.78864000E-001 2.10000000E-001 0.00000000E+000
 3.82374000E-001 2.10000000E-001 0.00000000E+000
 3.85884000E-001 2.10000000E-001 0.00000000E+000
 3.89394000E-001 2.10000000E-001 0.00000000E+000
 3.92904000E-001 2.10000000E-001 0.00000000E+000
 3.96414000E-001 2.10000000E-001 0.00000000E+000
 3.99924000E-001 2.10000000E-001 0.00000000E+000
 4.03434000E-001 2.10000000E-001 0.00000000E+000
 4.06944000E-001 2.10000000E-001 0.00000000E+000
 4.10455000E-001 2.10000000E-001 0.00000000E+000
 4.13965000E-001 2.10000000E-001 0.00000000E+000
 4.17475000E-001 2.10000000E-001 0.00000000E+000
 4.20985000E-001 2.10000000E-001 0.00000000E+000
 4.24495000E-001 2.10000000E-001 0.00000000E+000
 4.28005000E-001 2.10000000E-001 0.00000000E+000
 4.31515000E-001 2.10000000E-001 0.00000000E+000
 4.35025000E-001 2.10000000E-001 0.00000000E+000
 4.38535000E-001 2.10000000E-001 0.00000000E+000
 4.42045000E-001 2.10000000E-001 0.00000000E+000
 4.45556000E-001 2.10000000E-001 0.00000000E+000
 4.49066000E-001 2.10000000E-001 0.00000000E+000
 4.52576000E-001 2.10000000E-001 0.00000000E+000
 4.56086000E-001 2.10000000E-001 0.00000000E+000
 4.59596000E-001 2.10000000E-001 0.00000000E+000
 4.63106000E-001 2.10000000E-001 0.00000000E+000
 4.66616000E-001 2.10000000E-001 0.00000000E+000
 4.70126000E-001 2.10000000E-001 0.00000000E+000
 4.73636000E-001 2.10000000E-001 0.00000000E+000
 4.77146000E-001 2.10000000E-001 0.00000000E+000
 4.80657000E-001 2.10000000E-001 0.00000000E+000
 4.84167000E-001 2.10000000E-001 0.00000000E+000
 4.87677000E-001 2.10000000E-001 0.00000000E+000
 4.91187000E-001 2.10000000E-001 0.00000000E+000
 4.94697000E-001 2.10000000E-001 0.00000000E+000
[...]
POINT_DATA 3232
VECTORS DISP double
 -2.3072600E-004  1.2432000E-002  1.0561700E-004
 -2.2276100E-004  1.2429900E-002  1.0555100E-004
 -2.1859400E-004  1.2430100E-002  1.0534900E-004
 -2.1230700E-004  1.2430000E-002  1.0504900E-004
 -2.0694200E-004  1.2430100E-002  1.0468500E-004
 -2.0094800E-004  1.2430100E-002  1.0426700E-004
 -1.9519200E-004  1.2430200E-002  1.0381400E-004
 -1.8928600E-004  1.2430200E-002  1.0334100E-004
 -1.8342400E-004  1.2430300E-002  1.0286600E-004
 -1.7748100E-004  1.2430300E-002  1.0240800E-004
 -1.7157900E-004  1.2430300E-002  1.0198300E-004
 -1.6569600E-004  1.2430300E-002  1.0160900E-004
 -1.5966800E-004  1.2430400E-002  1.0130000E-004
 -1.5390700E-004  1.2430400E-002  1.0107000E-004
 -1.4766600E-004  1.2430400E-002  1.0092400E-004
 -1.4226300E-004  1.2430400E-002  1.0087100E-004
 -1.4245300E-004  1.2414600E-002  1.0086100E-004
 -1.4345300E-004  1.2398800E-002  1.0081700E-004
 -1.4395600E-004  1.2383200E-002  1.0072300E-004
 -1.4471500E-004  1.2367300E-002  1.0057400E-004
 -1.4516900E-004  1.2351500E-002  1.0035900E-004
 -1.4556300E-004  1.2335600E-002  1.0007200E-004
 -1.4558100E-004  1.2319600E-002  9.9706100E-005
 -1.4525500E-004  1.2303300E-002  9.9258700E-005
 -1.4439800E-004  1.2286500E-002  9.8730400E-005
 -1.4295700E-004  1.2269200E-002  9.8124200E-005
 -1.4082700E-004  1.2250900E-002  9.7446500E-005
 -1.3791900E-004  1.2231600E-002  9.6705000E-005
 -1.3419200E-004  1.2210700E-002  9.5910600E-005
 -1.2954600E-004  1.2188000E-002  9.5074500E-005
 -1.2398700E-004  1.2163200E-002  9.4210200E-005
 -1.1742800E-004  1.2136000E-002  9.3331700E-005
 -1.0990300E-004  1.2105900E-002  9.2453500E-005
 -1.0135600E-004  1.2072500E-002  9.1590900E-005
 -9.1835200E-005  1.2035600E-002  9.0758400E-005
 -8.1324100E-005  1.1994700E-002  8.9971000E-005
 -6.9872800E-005  1.1949700E-002  8.9242100E-005
 -5.7510700E-005  1.1899900E-002  8.8585500E-005
 -4.4281800E-005  1.1845300E-002  8.8012900E-005
 -3.0255900E-005  1.1785500E-002  8.7535400E-005
 -1.5472400E-005  1.1720200E-002  8.7162300E-005
 -2.9035000E-008  1.1649300E-002  8.6901700E-005
  1.6032300E-005  1.1572500E-002  8.6760000E-005
  3.2605100E-005  1.1489800E-002  8.6741500E-005
  4.9635600E-005  1.1400800E-002  8.6849700E-005
  6.7025400E-005  1.1305700E-002  8.7085100E-005
  8.4700600E-005  1.1204300E-002  8.7448100E-005
  1.0258600E-004  1.1096600E-002  8.7935700E-005
  1.2058400E-004  1.0982500E-002  8.8545000E-005
  1.3864800E-004  1.0862300E-002  8.9270400E-005
  1.5666300E-004  1.0735900E-002  9.0105700E-005
  1.7460500E-004  1.0603400E-002  9.1043000E-005
  1.9235800E-004  1.0465100E-002  9.2073500E-005
  2.0990800E-004  1.0320900E-002  9.3187800E-005
  2.2715300E-004  1.0171300E-002  9.4374700E-005
  2.4407400E-004  1.0016100E-002  9.5624100E-005
  2.6060300E-004  9.8559700E-003  9.6923200E-005
  2.7669800E-004  9.6907500E-003  9.8261200E-005
  2.9234100E-004  9.5210100E-003  9.9625300E-005
  3.0746100E-004  9.3467800E-003  1.0100400E-004
  3.2208500E-004  9.1684500E-003  1.0238600E-004
  3.3612400E-004  8.9863000E-003  1.0375800E-004
  3.4963300E-004  8.8004700E-003  1.0511100E-004
  3.6252600E-004  8.6115000E-003  1.0643300E-004
  3.7485800E-004  8.4192900E-003  1.0771600E-004
  3.8657500E-004  8.2245900E-003  1.0894800E-004
  3.9770100E-004  8.0271500E-003  1.1012300E-004
  4.0823700E-004  7.8277300E-003  1.1123200E-004
  4.1815600E-004  7.6261700E-003  1.1226900E-004
  4.2752300E-004  7.4230300E-003  1.1322800E-004
  4.3625900E-004  7.2183900E-003  1.1410400E-004
  4.4447800E-004  7.0124900E-003  1.1489400E-004
  4.5207000E-004  6.8057100E-003  1.1559400E-004
  4.5916600E-004  6.5979400E-003  1.1620200E-004
  4.6565600E-004  6.3898900E-003  1.1671700E-004
  4.7165300E-004  6.1811300E-003  1.1713900E-004
  4.7707800E-004  5.9725400E-003  1.1746600E-004
  4.8199300E-004  5.7636200E-003  1.1770000E-004
  4.8637100E-004  5.5551900E-003  1.1784300E-004
  4.9021600E-004  5.3468700E-003  1.1789600E-004
  4.9354000E-004  5.1392600E-003  1.1786100E-004
  4.9631200E-004  4.9322600E-003  1.1774100E-004
  4.9854900E-004  4.7261300E-003  1.1753800E-004
  5.0022000E-004  4.5211000E-003  1.1725600E-004
  5.0130900E-004  4.3171600E-003  1.1689800E-004
  5.0182300E-004  4.1147400E-003  1.1646500E-004
  5.0167300E-004  3.9137200E-003  1.1596200E-004
  5.0094100E-004  3.7145400E-003  1.1538900E-004
  4.9943600E-004  3.5172400E-003  1.1475000E-004
  4.9732700E-004  3.3219900E-003  1.1404600E-004
  4.9432400E-004  3.1292400E-003  1.1327700E-004
  4.9067200E-004  2.9387400E-003  1.1244400E-004
  4.8600000E-004  2.7514300E-003  1.1154400E-004
  4.8060600E-004  2.5666000E-003  1.1057700E-004
  4.7406400E-004  2.3857100E-003  1.0953600E-004
  4.6669900E-004  2.2076300E-003  1.0841800E-004
  4.5805700E-004  2.0342500E-003  1.0721300E-004
  4.4846800E-004  1.8641300E-003  1.0591100E-004
  4.3746700E-004  1.6995000E-003  1.0449600E-004
  4.2538500E-004  1.5387300E-003  1.0295100E-004
  4.1174600E-004  1.3842900E-003  1.0125300E-004
  3.9687900E-004  1.2343700E-003  9.9370200E-005
  3.8031600E-004  1.0917800E-003  9.7268600E-005
  3.6235000E-004  9.5437500E-004  9.4898600E-005
  3.4258600E-004  8.2555200E-004  9.2206900E-005
  3.2118200E-004  7.0248300E-004  8.9116800E-005
  2.9797500E-004  5.8961700E-004  8.5546200E-005
  2.7274400E-004  4.8284800E-004  8.1376700E-005
  2.4593800E-004  3.8843500E-004  7.6481800E-005
  2.1640000E-004  3.0005500E-004  7.0676700E-005
  1.8601000E-004  2.2699500E-004  6.3766600E-005
  1.5146900E-004  1.5911000E-004  5.5452500E-005
  1.1805800E-004  1.1117000E-004  4.5440100E-005
  7.7852500E-005  6.5042300E-005  3.3222900E-005
  4.5825500E-005  4.6984300E-005  1.8458800E-005
  0.0000000E+000  0.0000000E+000  0.0000000E+000
  0.0000000E+000  0.0000000E+000  0.0000000E+000
  0.0000000E+000  0.0000000E+000  0.0000000E+000
  0.0000000E+000  0.0000000E+000  0.0000000E+000
  0.0000000E+000  0.0000000E+000  0.0000000E+000
  0.0000000E+000  0.0000000E+000  0.0000000E+000
  0.0000000E+000  0.0000000E+000  0.0000000E+000
  0.0000000E+000  0.0000000E+000  0.0000000E+000
  0.0000000E+000  0.0000000E+000  0.0000000E+000
  0.0000000E+000  0.0000000E+000  0.0000000E+000
  0.0000000E+000  0.0000000E+000  0.0000000E+000
  0.0000000E+000  0.0000000E+000  0.0000000E+000
  0.0000000E+000  0.0000000E+000  0.0000000E+000
  0.0000000E+000  0.0000000E+000  0.0000000E+000
  0.0000000E+000  0.0000000E+000  0.0000000E+000
  0.0000000E+000  0.0000000E+000  0.0000000E+000
 -4.5929000E-005  4.8108300E-005 -6.1633200E-006
 -7.6587900E-005  6.5297900E-005 -9.1110900E-006
 -1.1664200E-004  1.1100300E-004 -9.9690000E-006
 -1.4956500E-004  1.5784800E-004 -9.0469200E-006
 -1.8430600E-004  2.2497300E-004 -6.8422200E-006
 -2.1499500E-004  2.9653800E-004 -3.6340700E-006
 -2.4542800E-004  3.8403900E-004  2.8921600E-007
 -2.7343000E-004  4.7665300E-004  4.7428000E-006
 -3.0042000E-004  5.8249900E-004  9.5540600E-006
 -3.2580800E-004  6.9343200E-004  1.4603900E-005
 -3.4990500E-004  8.1552300E-004  1.9786800E-005
 -3.7286500E-004  9.4246700E-004  2.5027200E-005
 -3.9447600E-004  1.0787900E-003  3.0260600E-005
 -4.1522600E-004  1.2197100E-003  3.5440800E-005
 -4.3467900E-004  1.3684100E-003  4.0528700E-005
 -4.5343900E-004  1.5214700E-003  4.5498000E-005
 -4.7101000E-004  1.6809100E-003  5.0325800E-005
 -4.8798900E-004  1.8444500E-003  5.4999200E-005
 -5.0391700E-004  2.0131900E-003  5.9505400E-005
 -5.1930400E-004  2.1857000E-003  6.3840800E-005
 -5.3379300E-004  2.3624800E-003  6.7999000E-005
 -5.4776300E-004  2.5425900E-003  7.1982300E-005
 -5.6098000E-004  2.7263100E-003  7.5789600E-005
 -5.7369200E-004  2.9128500E-003  7.9425700E-005
 -5.8576900E-004  3.1025100E-003  8.2893700E-005
 -5.9735800E-004  3.2944300E-003  8.6199800E-005
 -6.0839900E-004  3.4891300E-003  8.9350100E-005
 -6.1897500E-004  3.6855500E-003  9.2351200E-005
 -6.2905100E-004  3.8844300E-003  9.5211400E-005
 -6.3869400E-004  4.0845900E-003  9.7937200E-005
 -6.4784800E-004  4.2868400E-003  1.0053800E-004
 -6.5660100E-004  4.4900600E-003  1.0302100E-004
 -6.6485300E-004  4.6949300E-003  1.0539500E-004
 -6.7272100E-004  4.9005800E-003  1.0766800E-004
 -6.8006500E-004  5.1073600E-003  1.0984800E-004
 -6.8701800E-004  5.3147800E-003  1.1194300E-004
 -6.9341900E-004  5.5228000E-003  1.1396000E-004
 -6.9939300E-004  5.7313100E-003  1.1590700E-004
 -7.0479000E-004  5.9399200E-003  1.1778900E-004
 -7.0969400E-004  6.1487800E-003  1.1961400E-004
 -7.1399700E-004  6.3573200E-003  1.2138600E-004
 -7.1772100E-004  6.5657400E-003  1.2311100E-004
 -7.2081400E-004  6.7734800E-003  1.2479200E-004
 -7.2323500E-004  6.9806400E-003  1.2643400E-004
 -7.2498200E-004  7.1867900E-003  1.2803800E-004
 -7.2597200E-004  7.3917900E-003  1.2960700E-004
 -7.2622800E-004  7.5954700E-003  1.3114100E-004
 -7.2565800E-004  7.7973800E-003  1.3264100E-004
 -7.2428400E-004  7.9976000E-003  1.3410500E-004
 -7.2203300E-004  8.1954600E-003  1.3553200E-004
 -7.1890300E-004  8.3911400E-003  1.3691900E-004
 -7.1486800E-004  8.5839200E-003  1.3826200E-004
 -7.0988800E-004  8.7739400E-003  1.3955800E-004
 -7.0399100E-004  8.9605800E-003  1.4080000E-004
 -6.9711000E-004  9.1437800E-003  1.4198200E-004
 -6.8931300E-004  9.3231700E-003  1.4309800E-004
 -6.8052900E-004  9.4984100E-003  1.4414100E-004
 -6.7084600E-004  9.6694300E-003  1.4510300E-004
 -6.6021500E-004  9.8356500E-003  1.4597400E-004
 -6.4872000E-004  9.9972000E-003  1.4674800E-004
 -6.3636000E-004  1.0153400E-002  1.4741400E-004
 -6.2319700E-004  1.0304400E-002  1.4796500E-004
 -6.0928900E-004  1.0449700E-002  1.4839100E-004
 -5.9467300E-004  1.0589400E-002  1.4868500E-004
 -5.7945900E-004  1.0723000E-002  1.4883900E-004
 -5.6367400E-004  1.0850600E-002  1.4884600E-004
 -5.4745600E-004  1.0972000E-002  1.4870000E-004
 -5.3084400E-004  1.1087100E-002  1.4839600E-004
 -5.1397400E-004  1.1195900E-002  1.4793000E-004
 -4.9692300E-004  1.1298200E-002  1.4729900E-004
 -4.7979400E-004  1.1394400E-002  1.4650400E-004
 -4.6271500E-004  1.1484000E-002  1.4554400E-004
 -4.4574200E-004  1.1567600E-002  1.4442400E-004
 -4.2905000E-004  1.1645000E-002  1.4314700E-004
 -4.1265200E-004  1.1716500E-002  1.4172200E-004
 -3.9674600E-004  1.1782300E-002  1.4015600E-004
 -3.8131600E-004  1.1842400E-002  1.3846200E-004
 -3.6655700E-004  1.1897500E-002  1.3665200E-004
 -3.5244000E-004  1.1947300E-002  1.3474200E-004
 -3.3913000E-004  1.1992800E-002  1.3274900E-004
 -3.2659400E-004  1.2033600E-002  1.3069100E-004
 -3.1496000E-004  1.2070800E-002  1.2859000E-004
 -3.0418100E-004  1.2103900E-002  1.2646500E-004
 -2.9435500E-004  1.2134200E-002  1.2434000E-004
 -2.8540500E-004  1.2161200E-002  1.2223900E-004
 -2.7741400E-004  1.2186200E-002  1.2018200E-004
 -2.7025600E-004  1.2208500E-002  1.1819500E-004
 -2.6401700E-004  1.2229500E-002  1.1629800E-004
 -2.5850900E-004  1.2248500E-002  1.1451300E-004
 -2.5383500E-004  1.2267000E-002  1.1285800E-004
 -2.4973400E-004  1.2283800E-002  1.1135200E-004
 -2.4636000E-004  1.2301100E-002  1.1000800E-004
 -2.4333700E-004  1.2316700E-002  1.0883900E-004
 -2.4096000E-004  1.2333500E-002  1.0785100E-004
 -2.3861000E-004  1.2348500E-002  1.0705100E-004
 -2.3695600E-004  1.2365700E-002  1.0643400E-004
 -2.3477500E-004  1.2380300E-002  1.0600200E-004
 -2.3371300E-004  1.2398500E-002  1.0573600E-004
 -2.3083300E-004  1.2412000E-002  1.0562500E-004
 -2.2576600E-004  1.2414300E-002  1.0556400E-004
 -2.2703400E-004  1.2397200E-002  1.0567600E-004
 -2.2894900E-004  1.2381900E-002  1.0594200E-004
 -2.3069600E-004  1.2365000E-002  1.0636900E-004
 -2.3259800E-004  1.2349800E-002  1.0697600E-004
 -2.3479600E-004  1.2333300E-002  1.0776300E-004
 -2.3716500E-004  1.2317900E-002  1.0873400E-004
 -2.4002900E-004  1.2301200E-002  1.0988300E-004
 -2.4320900E-004  1.2285100E-002  1.1120200E-004
 -2.4701400E-004  1.2267600E-002  1.1268100E-004
 -2.5129800E-004  1.2249900E-002  1.1430500E-004
 -2.5630100E-004  1.2230500E-002  1.1605800E-004
 -2.6192400E-004  1.2210200E-002  1.1792000E-004
 -2.6832400E-004  1.2187600E-002  1.1987100E-004
 -2.7544400E-004  1.2163300E-002  1.2188900E-004
 -2.8336200E-004  1.2136100E-002  1.2395200E-004
 -2.9204800E-004  1.2106400E-002  1.2603700E-004
 -3.0151500E-004  1.2073100E-002  1.2812300E-004
 -3.1173900E-004  1.2036400E-002  1.3018600E-004
 -3.2269500E-004  1.1995600E-002  1.3220700E-004
 -3.3433600E-004  1.1950600E-002  1.3416500E-004
 -3.4663200E-004  1.1900700E-002  1.3604100E-004
 -3.5949000E-004  1.1846000E-002  1.3782000E-004
 -3.7289200E-004  1.1785900E-002  1.3948600E-004
 -3.8670200E-004  1.1720400E-002  1.4102700E-004
 -4.0091000E-004  1.1649000E-002  1.4243000E-004
 -4.1535900E-004  1.1571700E-002  1.4368900E-004
 -4.3002600E-004  1.1488300E-002  1.4479400E-004
 -4.4476800E-004  1.1398700E-002  1.4574300E-004
 -4.5952700E-004  1.1302800E-002  1.4653100E-004
 -4.7420300E-004  1.1200400E-002  1.4715900E-004
 -4.8868500E-004  1.1091800E-002  1.4762500E-004
 -5.0293600E-004  1.0976700E-002  1.4793400E-004
 -5.1680000E-004  1.0855400E-002  1.4808800E-004
 -5.3028800E-004  1.0727800E-002  1.4809200E-004
 -5.4322600E-004  1.0594100E-002  1.4795300E-004
 -5.5564900E-004  1.0454500E-002  1.4767600E-004
 -5.6740200E-004  1.0309100E-002  1.4727000E-004
 -5.7851100E-004  1.0158100E-002  1.4674100E-004
 -5.8887200E-004  1.0001700E-002  1.4610000E-004
 -5.9847500E-004  9.8402800E-003  1.4535400E-004
 -6.0729100E-004  9.6738500E-003  1.4451100E-004
 -6.1526600E-004  9.5028600E-003  1.4357900E-004
 -6.2243700E-004  9.3274500E-003  1.4256800E-004
 -6.2872200E-004  9.1479800E-003  1.4148400E-004
 -6.3420100E-004  8.9647100E-003  1.4033400E-004
 -6.3879000E-004  8.7778800E-003  1.3912600E-004
 -6.4258000E-004  8.5878700E-003  1.3786400E-004
 -6.4551600E-004  8.3948100E-003  1.3655400E-004
 -6.4766200E-004  8.1991700E-003  1.3520000E-004
 -6.4902000E-004  8.0010200E-003  1.3380700E-004
 -6.4960600E-004  7.8008300E-003  1.3237500E-004
 -6.4948500E-004  7.5986600E-003  1.3090700E-004
 -6.4862200E-004  7.3949400E-003  1.2940500E-004
 -6.4713300E-004  7.1897800E-003  1.2786700E-004
 -6.4494900E-004  6.9834700E-003  1.2629300E-004
 -6.4220800E-004  6.7762600E-003  1.2468000E-004
 -6.3883600E-004  6.5682800E-003  1.2302800E-004
 -6.3495500E-004  6.3598600E-003  1.2133100E-004
 -6.3052400E-004  6.1510500E-003  1.1958600E-004
 -6.2560900E-004  5.9422000E-003  1.1778800E-004
 -6.2022800E-004  5.7333500E-003  1.1593200E-004
 -6.1437700E-004  5.5247700E-003  1.1401200E-004
 -6.0813000E-004  5.3166200E-003  1.1202000E-004
 -6.0142600E-004  5.1089900E-003  1.0995100E-004
 -5.9437000E-004  4.9022200E-003  1.0779700E-004
 -5.8687600E-004  4.6962100E-003  1.0554900E-004
 -5.7903900E-004  4.4914900E-003  1.0320100E-004
 -5.7079400E-004  4.2877600E-003  1.0074400E-004
 -5.6217900E-004  4.0857400E-003  9.8170300E-005
 -5.5319100E-004  3.8850100E-003  9.5471700E-005
 -5.4377900E-004  3.6863700E-003  9.2640100E-005
 -5.3402000E-004  3.4893700E-003  8.9668200E-005
 -5.2377400E-004  3.2948500E-003  8.6548400E-005
 -5.1318200E-004  3.1023800E-003  8.3273900E-005
 -5.0204600E-004  2.9128200E-003  7.9838500E-005
 -4.9053000E-004  2.7257600E-003  7.6236900E-005
 -4.7842600E-004  2.5420900E-003  7.2464800E-005
 -4.6586600E-004  2.3614000E-003  6.8519000E-005
 -4.5269200E-004  2.1847100E-003  6.4398400E-005
 -4.3895000E-004  2.0114600E-003  6.0103300E-005
 -4.2457700E-004  1.8430000E-003  5.5637300E-005
 -4.0949400E-004  1.6783800E-003  5.1006200E-005
 -3.9376800E-004  1.5195500E-003  4.6220200E-005
 -3.7716500E-004  1.3649400E-003  4.1293900E-005
 -3.5991200E-004  1.2173000E-003  3.6247700E-005
 -3.4157600E-004  1.0742500E-003  3.1109200E-005
 -3.2261500E-004  9.3955700E-004  2.5914500E-005
 -3.0227900E-004  8.0978800E-004  2.0710800E-005
 -2.8144600E-004  6.9000400E-004  1.5558500E-005
 -2.5875800E-004  5.7541500E-004  1.0534900E-005
 -2.3593600E-004  4.7274300E-004  5.7378700E-006
 -2.1039700E-004  3.7538000E-004  1.2909000E-006
 -1.8559400E-004  2.9230700E-004 -2.6487700E-006
 -1.5643600E-004  2.1434500E-004 -5.8860300E-006
 -1.2995200E-004  1.5371600E-004 -8.1651300E-006
 -9.5994900E-005  9.7723600E-005 -9.1866700E-006
 -6.9169500E-005  6.2423600E-005 -8.5291700E-006
 -2.9471800E-005  3.1506200E-005 -5.8413100E-006
 -2.1902100E-004  1.2414300E-002  1.0538000E-004
 -2.2135100E-004  1.2397800E-002  1.0550300E-004
 -2.2269700E-004  1.2381800E-002  1.0576300E-004
 -2.2459000E-004  1.2365800E-002  1.0617600E-004
 -2.2647600E-004  1.2349800E-002  1.0675500E-004
 -2.2849900E-004  1.2334100E-002  1.0750600E-004
 -2.3091100E-004  1.2318000E-002  1.0842800E-004
 -2.3344800E-004  1.2302200E-002  1.0951900E-004
 -2.3654700E-004  1.2285500E-002  1.1077000E-004
 -2.3988600E-004  1.2268700E-002  1.1217100E-004
 -2.4387900E-004  1.2250600E-002  1.1371000E-004
 -2.4824800E-004  1.2231800E-002  1.1536900E-004
 -2.5332000E-004  1.2211200E-002  1.1713200E-004
 -2.5888500E-004  1.2189200E-002  1.1897800E-004
 -2.6516900E-004  1.2164700E-002  1.2088800E-004
 -2.7202200E-004  1.2138000E-002  1.2284200E-004
 -2.7958200E-004  1.2108200E-002  1.2481600E-004
 -2.8773600E-004  1.2075300E-002  1.2679100E-004
 -2.9656000E-004  1.2038700E-002  1.2874600E-004
 -3.0594400E-004  1.1998100E-002  1.3066200E-004
 -3.1594300E-004  1.1953200E-002  1.3251900E-004
 -3.2641700E-004  1.1903600E-002  1.3430100E-004
 -3.3742400E-004  1.1848900E-002  1.3599300E-004
 -3.4878700E-004  1.1789100E-002  1.3757900E-004
 -3.6056900E-004  1.1723600E-002  1.3904800E-004
 -3.7257300E-004  1.1652500E-002  1.4039000E-004
 -3.8484700E-004  1.1575300E-002  1.4159600E-004
 -3.9720800E-004  1.1492000E-002  1.4266000E-004
 -4.0966300E-004  1.1402500E-002  1.4357800E-004
 -4.2207800E-004  1.1306700E-002  1.4434600E-004
 -4.3439300E-004  1.1204400E-002  1.4496400E-004
 -4.4655100E-004  1.1095800E-002  1.4543200E-004
 -4.5842100E-004  1.0980800E-002  1.4575300E-004
 -4.7001800E-004  1.0859500E-002  1.4592800E-004
 -4.8116500E-004  1.0731900E-002  1.4596400E-004
 -4.9192200E-004  1.0598300E-002  1.4586500E-004
 -5.0210800E-004  1.0458700E-002  1.4563800E-004
 -5.1178200E-004  1.0313300E-002  1.4528800E-004
 -5.2081100E-004  1.0162300E-002  1.4482400E-004
 -5.2921300E-004  1.0005900E-002  1.4425300E-004
 -5.3693300E-004  9.8443300E-003  1.4358300E-004
 -5.4393100E-004  9.6778900E-003  1.4282200E-004
 -5.5023700E-004  9.5068100E-003  1.4197600E-004
 -5.5575800E-004  9.3313500E-003  1.4105300E-004
 -5.6058800E-004  9.1518000E-003  1.4006000E-004
 -5.6461300E-004  8.9684400E-003  1.3900400E-004
 -5.6794900E-004  8.7815500E-003  1.3789000E-004
 -5.7050400E-004  8.5914100E-003  1.3672300E-004
 -5.7237000E-004  8.3983100E-003  1.3550900E-004
 -5.7351400E-004  8.2025200E-003  1.3425000E-004
 -5.7397200E-004  8.0043200E-003  1.3295100E-004
 -5.7378800E-004  7.8039700E-003  1.3161200E-004
 -5.7292900E-004  7.6017500E-003  1.3023600E-004
 -5.7151100E-004  7.3978800E-003  1.2882300E-004
 -5.6944900E-004  7.1926300E-003  1.2737400E-004
 -5.6689500E-004  6.9862200E-003  1.2588500E-004
 -5.6375400E-004  6.7788800E-003  1.2435700E-004
 -5.6016500E-004  6.5708200E-003  1.2278600E-004
 -5.5606700E-004  6.3622600E-003  1.2117000E-004
 -5.5153800E-004  6.1533700E-003  1.1950300E-004
 -5.4659300E-004  5.9443800E-003  1.1778200E-004
 -5.4121900E-004  5.7354300E-003  1.1600100E-004
 -5.3551300E-004  5.5267500E-003  1.1415500E-004
 -5.2937800E-004  5.3184400E-003  1.1223700E-004
 -5.2297400E-004  5.1107700E-003  1.1024100E-004
 -5.1615200E-004  4.9037700E-003  1.0816000E-004
 -5.0908500E-004  4.6977800E-003  1.0598500E-004
 -5.0162900E-004  4.4927500E-003  1.0371100E-004
 -4.9391400E-004  4.2890900E-003  1.0133000E-004
 -4.8585300E-004  4.0867100E-003  9.8832700E-005
 -4.7748800E-004  3.8860700E-003  9.6212800E-005
 -4.6881700E-004  3.6870200E-003  9.3462500E-005
 -4.5978800E-004  3.4901200E-003  9.0574300E-005
 -4.5046900E-004  3.2951500E-003  8.7541400E-005
 -4.4075000E-004  3.1027900E-003  8.4357200E-005
 -4.3071700E-004  2.9127200E-003  8.1015700E-005
 -4.2026400E-004  2.7257900E-003  7.7511700E-005
 -4.0942500E-004  2.5415400E-003  7.3841000E-005