# vtk DataFile Version 3.0
MMH: CalculiX output 'object.frd' file to 'vtk' format
ASCII
DATASET UNSTRUCTURED_GRID
POINTS 3232 double
 6.00000000E-001 2.10000000E-001 0.00000000E+000
 6.00000000E-001 2.08667000E-001 0.00000000E+000
 6.00000000E-001 2.07333000E-001 0.00000000E+000
 6.00000000E-001 2.06000000E-001 0.00000000E+000
 6.00000000E-001 2.04667000E-001 0.00000000E+000
 6.00000000E-001 2.03333000E-001 0.00000000E+000
 6.00000000E-001 2.02000000E-001 0.00000000E+000
 6.00000000E-001 2.00667000E-001 0.00000000E+000
 6.00000000E-001 1.99333000E-001 0.00000000E+000
 6.00000000E-001 1.98000000E-001 0.00000000E+000
 6.00000000E-001 1.96667000E-001 0.00000000E+000
 6.00000000E-001 1.95333000E-001 0.00000000E+000
 6.00000000E-001 1.94000000E-001 0.00000000E+000
 6.00000000E-001 1.92667000E-001 0.00000000E+000
 6.00000000E-001 1.91333000E-001 0.00000000E+000
 6.00000000E-001 1.90000000E-001 0.00000000E+000
 5.96490000E-001 1.90000000E-001 0.00000000E+000
 5.92980000E-001 1.90000000E-001 0.00000000E+000
 5.89470000E-001 1.90000000E-001 0.00000000E+000
 5.85960000E-001 1.90000000E-001 0.00000000E+000
 5.82449000E-001 1.90000000E-001 0.00000000E+000
 5.78939000E-001 1.90000000E-001 0.00000000E+000
 5.75429000E-001 1.90000000E-001 0.00000000E+000
 5.71919000E-001 1.90000000E-001 0.00000000E+000
 5.68409000E-001 1.90000000E-001 0.00000000E+000
 5.64899000E-001 1.90000000E-001 0.00000000E+000
 5.61389000E-001 1.90000000E-001 0.00000000E+000
 5.57879000E-001 1.90000000E-001 0.00000000E+000
 5.54369000E-001 1.90000000E-001 0.00000000E+000
 5.50859000E-001 1.90000000E-001 0.00000000E+000
 5.47348000E-001 1.90000000E-001 0.00000000E+000
 5.43838000E-001 1.90000000E-001 0.00000000E+000
 5.40328000E-001 1.90000000E-001 0.00000000E+000
 5.36818000E-001 1.90000000E-001 0.00000000E+000
 5.33308000E-001 1.90000000E-001 0.00000000E+000
 5.29798000E-001 1.90000000E-001 0.00000000E+000
 5.26288000E-001 1.90000000E-001 0.00000000E+000
 5.22778000E-001 1.90000000E-001 0.00000000E+000
 5.19268000E-001 1.90000000E-001 0.00000000E+000
 5.15758000E-001 1.90000000E-001 0.00000000E+000
 5.12247000E-001 1.90000000E-001 0.00000000E+000
 5.08737000E-001 1.90000000E-001 0.00000000E+000
 5.05227000E-001 1.90000000E-001 0.00000000E+000
 5.01717000E-001 1.90000000E-001 0.00000000E+000
 4.98207000E-001 1.90000000E-001 0.00000000E+000
 4.94697000E-001 1.90000000E-001 0.00000000E+000
 4.91187000E-001 1.90000000E-001 0.00000000E+000
 4.87677000E-001 1.90000000E-001 0.00000000E+000
 4.84167000E-001 1.90000000E-001 0.00000000E+000
 4.80657000E-001 1.90000000E-001 0.00000000E+000
 4.77146000E-001 1.90000000E-001 0.00000000E+000
 4.73636000E-001 1.90000000E-001 0.00000000E+000
 4.70126000E-001 1.90000000E-001 0.00000000E+000
 4.66616000E-001 1.90000000E-001 0.00000000E+000
 4.63106000E-001 1.90000000E-001 0.00000000E+000
 4.59596000E-001 1.90000000E-001 0.00000000E+000
 4.56086000E-001 1.90000000E-001 0.00000000E+000
 4.52576000E-001 1.90000000E-001 0.00000000E+000
 4.49066000E-001 1.90000000E-001 0.00000000E+000
 4.45556000E-001 1.90000000E-001 0.00000000E+000
 4.42045000E-001 1.90000000E-001 0.00000000E+000
 4.38535000E-001 1.90000000E-001 0.00000000E+000
 4.35025000E-001 1.90000000E-001 0.00000000E+000
 4.31515000E-001 1.90000000E-001 0.00000000E+000
 4.28005000E-001 1.90000000E-001 0.00000000E+000
 4.24495000E-001 1.90000000E-001 0.00000000E+000
 4.20985000E-001 1.90000000E-001 0.00000000E+000
 4.17475000E-001 1.90000000E-001 0.00000000E+000
 4.13965000E-001 1.90000000E-001 0.00000000E+000
 4.10455000E-001 1.90000000E-001 0.00000000E+000
 4.06944000E-001 1.90000000E-001 0.00000000E+000
 4.03434000E-001 1.90000000E-001 0.00000000E+000
 3.99924000E-001 1.90000000E-001 0.00000000E+000
 3.96414000E-001 1.90000000E-001 0.00000000E+000
 3.92904000E-001 1.90000000E-001 0.00000000E+000
 3.89394000E-001 1.90000000E-001 0.00000000E+000
 3.85884000E-001 1.90000000E-001 0.00000000E+000
 3.82374000E-001 1.90000000E-001 0.00000000E+000
 3.78864000E-001 1.90000000E-001 0.00000000E+000
 3.75353000E-001 1.90000000E-001 0.00000000E+000
 3.71843000E-001 1.90000000E-001 0.00000000E+000
 3.68333000E-001 1.90000000E-001 0.00000000E+000
 3.64823000E-001 1.90000000E-001 0.00000000E+000
 3.61313000E-001 1.90000000E-001 0.00000000E+000
 3.57803000E-001 1.90000000E-001 0.00000000E+000
 3.54293000E-001 1.90000000E-001 0.00000000E+000
 3.50783000E-001 1.90000000E-001 0.00000000E+000
 3.47273000E-001 1.90000000E-001 0.00000000E+000
 3.43763000E-001 1.90000000E-001 0.00000000E+000
 3.40252000E-001 1.90000000E-001 0.00000000E+000
 3.36742000E-001 1.90000000E-001 0.00000000E+000
 3.33232000E-001 1.90000000E-001 0.00000000E+000
 3.29722000E-001 1.90000000E-001 0.00000000E+000
 3.26212000E-001 1.90000000E-001 0.00000000E+000
 3.22702000E-001 1.90000000E-001 0.00000000E+000
 3.19192000E-001 1.90000000E-001 0.00000000E+000
 3.15682000E-001 1.90000000E-001 0.00000000E+000
 3.12172000E-001 1.90000000E-001 0.00000000E+000
 3.08661000E-001 1.90000000E-001 0.00000000E+000
 3.05151000E-001 1.90000000E-001 0.00000000E+000
 3.01641000E-001 1.90000000E-001 0.00000000E+000
 2.98131000E-001 1.90000000E-001 0.00000000E+000
 2.94621000E-001 1.90000000E-001 0.00000000E+000
 2.91111000E-001 1.90000000E-001 0.00000000E+000
 2.87601000E-001 1.90000000E-001 0.00000000E+000
 2.84091000E-001 1.90000000E-001 0.00000000E+000
 2.80581000E-001 1.90000000E-001 0.00000000E+000
 2.77071000E-001 1.90000000E-001 0.00000000E+000
 2.73560000E-001 1.90000000E-001 0.00000000E+000
 2.70050000E-001 1.90000000E-001 0.00000000E+000
 2.66540000E-001 1.90000000E-001 0.00000000E+000
 2.63030000E-001 1.90000000E-001 0.00000000E+000
 2.59520000E-001 1.90000000E-001 0.00000000E+000
 2.56010000E-001 1.90000000E-001 0.00000000E+000
 2.52500000E-001 1.90000000E-001 0.00000000E+000
 2.48990000E-001 1.90000000E-001 0.00000000E+000
 2.48990000E-001 1.91333000E-001 0.00000000E+000
 2.48990000E-001 1.92667000E-001 0.00000000E+000
 2.48990000E-001 1.94000000E-001 0.00000000E+000
 2.48990000E-001 1.95333000E-001 0.00000000E+000
 2.48990000E-001 1.96667000E-001 0.00000000E+000
 2.48990000E-001 1.98000000E-001 0.00000000E+000
 2.48990000E-001 1.99333000E-001 0.00000000E+000
 2.48990000E-001 2.00667000E-001 0.00000000E+000
 2.48990000E-001 2.02000000E-001 0.00000000E+000
 2.48990000E-001 2.03333000E-001 0.00000000E+000
 2.48990000E-001 2.04667000E-001 0.00000000E+000
 2.48990000E-001 2.06000000E-001 0.00000000E+000
 2.48990000E-001 2.07333000E-001 0.00000000E+000
 2.48990000E-001 2.08667000E-001 0.00000000E+000
 2.48990000E-001 2.10000000E-001 0.00000000E+000
 2.52500000E-001 2.10000000E-001 0.00000000E+000
 2.56010000E-001 2.10000000E-001 0.00000000E+000
 2.59520000E-001 2.10000000E-001 0.00000000E+000
 2.63030000E-001 2.10000000E-001 0.00000000E+000
 2.66540000E-001 2.10000000E-001 0.00000000E+000
 2.70050000E-001 2.10000000E-001 0.00000000E+000
 2.73560000E-001 2.10000000E-001 0.00000000E+000
 2.77071000E-001 2.10000000E-001 0.00000000E+000
 2.80581000E-001 2.10000000E-001 0.00000000E+000
 2.84091000E-001 2.10000000E-001 0.00000000E+000
 2.87601000E-001 2.10000000E-001 0.00000000E+000
 2.91111000E-001 2.10000000E-001 0.00000000E+000
 2.94621000E-001 2.10000000E-001 0.00000000E+000
 2.98131000E-001 2.10000000E-001 0.00000000E+000
 3.01641000E-001 2.10000000E-001 0.00000000E+000
 3.05151000E-001 2.10000000E-001 0.00000000E+000
 3.08661000E-001 2.10000000E-001 0.00000000E+000
 3.12172000E-001 2.10000000E-001 0.00000000E+000
 3.15682000E-001 2.10000000E-001 0.00000000E+000
 3.19192000E-001 2.10000000E-001 0.00000000E+000
 3.22702000E-001 2.10000000E-001 0.00000000E+000
 3.26212000E-001 2.10000000E-001 0.00000000E+000
 3.29722000E-001 2.10000000E-001 0.00000000E+000
 3.33232000E-001 2.10000000E-001 0.00000000E+000
 3.36742000E-001 2.10000000E-001 0.00000000E+000
 3.40252000E-001 2.10000000E-001 0.00000000E+000
 3.43763000E-001 2.10000000E-001 0.00000000E+000
 3.47273000E-001 2.10000000E-001 0.00000000E+000
 3.50783000E-001 2.10000000E-001 0.00000000E+000
 3.54293000E-001 2.10000000E-001 0.00000000E+000
 3.57803000E-001 2.10000000E-001 0.00000000E+000
 3.61313000E-001 2.10000000E-001 0.00000000E+000
 3.64823000E-001 2.10000000E-001 0.00000000E+000
 3.68333000E-001 2.10000000E-001 0.00000000E+000
 3.71843000E-001 2.10000000E-001 0.00000000E+000
 3.75353000E-001 2.10000000E-001 0.00000000E+000
 3.78864000E-001 2.10000000E-001 0.00000000E+000
 3.82374000E-001 2.10000000E-001 0.00000000E+000
 3.85884000E-001 2.10000000E-001 0.00000000E+000
 3.89394000E-001 2.10000000E-001 0.00000000E+000
 3.92904000E-001 2.10000000E-001 0.00000000E+000
 3.96414000E-001 2.10000000E-001 0.00000000E+000
 3.99924000E-001 2.10000000E-001 0.00000000E+000
 4.03434000E-001 2.10000000E-001 0.00000000E+000
 4.06944000E-001 2.10000000E-001 0.00000000E+000
 4.10455000E-001 2.10000000E-001 0.00000000E+000
 4.13965000E-001 2.10000000E-001 0.00000000E+000
 4.17475000E-001 2.10000000E-001 0.00000000E+000
 4.20985000E-001 2.10000000E-001 0.00000000E+000
 4.24495000E-001 2.10000000E-001 0.00000000E+000
 4.28005000E-001 2.10000000E-001 0.00000000E+000
 4.31515000E-001 2.10000000E-001 0.00000000E+000
 4.35025000E-001 2.10000000E-001 0.00000000E+000
 4.38535000E-001 2.10000000E-001 0.00000000E+000
 4.42045000E-001 2.10000000E-001 0.00000000E+000
 4.45556000E-001 2.10000000E-001 0.00000000E+000
 4.49066000E-001 2.10000000E-001 0.00000000E+000
 4.52576000E-001 2.10000000E-001 0.00000000E+000
 4.56086000E-001 2.10000000E-001 0.00000000E+000
 4.59596000E-001 2.10000000E-001 0.00000000E+000
 4.63106000E-001 2.10000000E-001 0.00000000E+000
 4.66616000E-001 2.10000000E-001 0.00000000E+000
 4.70126000E-001 2.10000000E-001 0.00000000E+000
 4.73636000E-001 2.10000000E-001 0.00000000E+000
 4.77146000E-001 2.10000000E-001 0.00000000E+000
 4.80657000E-001 2.10000000E-001 0.00000000E+000
 4.84167000E-001 2.10000000E-001 0.00000000E+000
 4.87677000E-001 2.10000000E-001 0.00000000E+000
 4.91187000E-001 2.10000000E-001 0.00000000E+000
 4.94697000E-001 2.10000000E-001 0.00000000E+000
[...]
POINT_DATA 3232
VECTORS DISP double
 -5.4855500E-003  3.2796500E-002  3.2604100E-005
 -5.1936000E-003  3.2827900E-002  3.2652500E-005
 -4.9029000E-003  3.2860100E-002  3.2798100E-005
 -4.6115900E-003  3.2892200E-002  3.3049200E-005
 -4.3204700E-003  3.2924400E-002  3.3401700E-005
 -4.0291800E-003  3.2956700E-002  3.3837500E-005
 -3.7379400E-003  3.2988900E-002  3.4338300E-005
 -3.4466600E-003  3.3021200E-002  3.4881800E-005
 -3.1553200E-003  3.3053400E-002  3.5444600E-005
 -2.8640100E-003  3.3085700E-002  3.6002800E-005
 -2.5726000E-003  3.3118100E-002  3.6531900E-005
 -2.2812800E-003  3.3150400E-002  3.7009600E-005
 -1.9897000E-003  3.3182800E-002  3.7412900E-005
 -1.6984600E-003  3.3215100E-002  3.7724600E-005
 -1.4064200E-003  3.3247700E-002  3.7920600E-005
 -1.1157200E-003  3.3279600E-002  3.7984100E-005
 -1.0308000E-003  3.2512600E-002  3.8061600E-005
 -9.4689300E-004  3.1744600E-002  3.8287800E-005
 -8.6250100E-004  3.0977700E-002  3.8654700E-005
 -7.7853900E-004  3.0210000E-002  3.9164400E-005
 -6.9462100E-004  2.9442800E-002  3.9817300E-005
 -6.1109800E-004  2.8675400E-002  4.0613000E-005
 -5.2788600E-004  2.7908400E-002  4.1553200E-005
 -4.4515800E-004  2.7141400E-002  4.2639000E-005
 -3.6295500E-004  2.6375100E-002  4.3873400E-005
 -2.8139900E-004  2.5609100E-002  4.5258500E-005
 -2.0059800E-004  2.4843900E-002  4.6797200E-005
 -1.2066800E-004  2.4079500E-002  4.8491600E-005
 -4.1757300E-005  2.3316200E-002  5.0343500E-005
  3.6006900E-005  2.2554200E-002  5.2353800E-005
  1.1244400E-004  2.1793900E-002  5.4522600E-005
  1.8741700E-004  2.1035500E-002  5.6848800E-005
  2.6071800E-004  2.0279500E-002  5.9330200E-005
  3.3220000E-004  1.9526000E-002  6.1963300E-005
  4.0163800E-004  1.8775700E-002  6.4743100E-005
  4.6887100E-004  1.8028900E-002  6.7663600E-005
  5.3367600E-004  1.7286300E-002  7.0716700E-005
  5.9587200E-004  1.6548200E-002  7.3893800E-005
  6.5525500E-004  1.5815300E-002  7.7184200E-005
  7.1162100E-004  1.5088200E-002  8.0576300E-005
  7.6480300E-004  1.4367400E-002  8.4056900E-005
  8.1457700E-004  1.3653800E-002  8.7612000E-005
  8.6081700E-004  1.2947900E-002  9.1226300E-005
  9.0329700E-004  1.2250600E-002  9.4883200E-005
  9.4193100E-004  1.1562400E-002  9.8566200E-005
  9.7651300E-004  1.0884300E-002  1.0225700E-004
  1.0069800E-003  1.0216800E-002  1.0593700E-004
  1.0331800E-003  9.5609200E-003  1.0958700E-004
  1.0550600E-003  8.9172100E-003  1.1318900E-004
  1.0725600E-003  8.2866100E-003  1.1672200E-004
  1.0856000E-003  7.6698000E-003  1.2016800E-004
  1.0942300E-003  7.0674900E-003  1.2350800E-004
  1.0983700E-003  6.4806100E-003  1.2672200E-004
  1.0981600E-003  5.9095200E-003  1.2979300E-004
  1.0935500E-003  5.3553800E-003  1.3270300E-004
  1.0847300E-003  4.8182700E-003  1.3543700E-004
  1.0717200E-003  4.2994200E-003  1.3797600E-004
  1.0547100E-003  3.7988000E-003  1.4031000E-004
  1.0338300E-003  3.3174700E-003  1.4242200E-004
  1.0092600E-003  2.8555000E-003  1.4430200E-004
  9.8125000E-004  2.4135500E-003  1.4594000E-004
  9.4992300E-004  1.9919400E-003  1.4732600E-004
  9.1563700E-004  1.5908200E-003  1.4845400E-004
  8.7851000E-004  1.2108000E-003  1.4931600E-004
  8.3894100E-004  8.5151900E-004  1.4991100E-004
  7.9708300E-004  5.1378700E-004  1.5023200E-004
  7.5331500E-004  1.9688600E-004  1.5028100E-004
  7.0786200E-004 -9.8409700E-005  1.5005500E-004
  6.6103600E-004 -3.7288400E-004  1.4955700E-004
  6.1314600E-004 -6.2609300E-004  1.4878900E-004
  5.6443000E-004 -8.5862600E-004  1.4775400E-004
  5.1524700E-004 -1.0705600E-003  1.4645700E-004
  4.6579000E-004 -1.2621700E-003  1.4490200E-004
  4.1641700E-004 -1.4340800E-003  1.4309700E-004
  3.6731400E-004 -1.5862700E-003  1.4104600E-004
  3.1878500E-004 -1.7197900E-003  1.3875900E-004
  2.7104500E-004 -1.8345200E-003  1.3624100E-004
  2.2430400E-004 -1.9316700E-003  1.3350200E-004
  1.7882500E-004 -2.0112900E-003  1.3055000E-004
  1.3471500E-004 -2.0744500E-003  1.2739400E-004
  9.2268000E-005 -2.1215800E-003  1.2404200E-004
  5.1514900E-005 -2.1534500E-003  1.2050500E-004
  1.2742000E-005 -2.1709700E-003  1.1679000E-004
 -2.4058500E-005 -2.1745300E-003  1.1290900E-004
 -5.8643900E-005 -2.1655000E-003  1.0887000E-004
 -9.1028200E-005 -2.1439700E-003  1.0468200E-004
 -1.2103700E-004 -2.1115900E-003  1.0035600E-004
 -1.4867400E-004 -2.0683500E-003  9.5901100E-005
 -1.7383100E-004 -2.0159400E-003  9.1328100E-005
 -1.9651600E-004 -1.9544600E-003  8.6646300E-005
 -2.1665600E-004 -1.8854500E-003  8.1866200E-005
 -2.3429300E-004 -1.8092100E-003  7.6998800E-005
 -2.4935100E-004 -1.7271000E-003  7.2054300E-005
 -2.6194100E-004 -1.6396000E-003  6.7045300E-005
 -2.7194300E-004 -1.5479000E-003  6.1982300E-005
 -2.7956600E-004 -1.4525600E-003  5.6880200E-005
 -2.8461600E-004 -1.3548000E-003  5.1750600E-005
 -2.8741600E-004 -1.2549800E-003  4.6611100E-005
 -2.8769000E-004 -1.1546000E-003  4.1476400E-005
 -2.8585300E-004 -1.0535700E-003  3.6367600E-005
 -2.8157900E-004 -9.5393500E-004  3.1304600E-005
 -2.7532900E-004 -8.5487100E-004  2.6313800E-005
 -2.6677700E-004 -7.5917100E-004  2.1423200E-005
 -2.5635600E-004 -6.6513100E-004  1.6668400E-005
 -2.4382900E-004 -5.7640800E-004  1.2088900E-005
 -2.2948200E-004 -4.9029700E-004  7.7357500E-006
 -2.1331700E-004 -4.1142800E-004  3.6659100E-006
 -1.9526400E-004 -3.3594300E-004 -4.4569200E-008
 -1.7584800E-004 -2.6966800E-004 -3.3124400E-006
 -1.5424000E-004 -2.0722900E-004 -6.0198100E-006
 -1.3207600E-004 -1.5622800E-004 -8.0437200E-006
 -1.0689300E-004 -1.0882900E-004 -9.1933400E-006
 -8.2905100E-005 -7.6024700E-005 -9.2895100E-006
 -5.4100600E-005 -4.4489600E-005 -8.0073500E-006
 -3.2072900E-005 -3.3102000E-005 -5.1601500E-006
  0.0000000E+000  0.0000000E+000  0.0000000E+000
  0.0000000E+000  0.0000000E+000  0.0000000E+000
  0.0000000E+000  0.0000000E+000  0.0000000E+000
  0.0000000E+000  0.0000000E+000  0.0000000E+000
  0.0000000E+000  0.0000000E+000  0.0000000E+000
  0.0000000E+000  0.0000000E+000  0.0000000E+000
  0.0000000E+000  0.0000000E+000  0.0000000E+000
  0.0000000E+000  0.0000000E+000  0.0000000E+000
  0.0000000E+000  0.0000000E+000  0.0000000E+000
  0.0000000E+000  0.0000000E+000  0.0000000E+000
  0.0000000E+000  0.0000000E+000  0.0000000E+000
  0.0000000E+000  0.0000000E+000  0.0000000E+000
  0.0000000E+000  0.0000000E+000  0.0000000E+000
  0.0000000E+000  0.0000000E+000  0.0000000E+000
  0.0000000E+000  0.0000000E+000  0.0000000E+000
  0.0000000E+000  0.0000000E+000  0.0000000E+000
  3.0268400E-005 -2.9182700E-005  1.1613500E-005
  5.2661600E-005 -4.0916700E-005  2.0644200E-005
  8.0402200E-005 -7.2002400E-005  2.7806700E-005
  1.0378000E-004 -1.0561100E-004  3.3322300E-005
  1.2764100E-004 -1.5314200E-004  3.7518300E-005
  1.4856500E-004 -2.0516300E-004  4.0587800E-005
  1.6849300E-004 -2.6779600E-004  4.2725600E-005
  1.8614800E-004 -3.3520300E-004  4.4060100E-005
  2.0212900E-004 -4.1083700E-004  4.4714500E-005
  2.1604500E-004 -4.9082400E-004  4.4774000E-005
  2.2793900E-004 -5.7704200E-004  4.4321300E-005
  2.3778400E-004 -6.6670100E-004  4.3414700E-005
  2.4543000E-004 -7.6083300E-004  4.2111800E-005
  2.5098000E-004 -8.5713400E-004  4.0454300E-005
  2.5423100E-004 -9.5628700E-004  3.8483300E-005
  2.5533500E-004 -1.0561000E-003  3.6230700E-005
  2.5408100E-004 -1.1571900E-003  3.3727000E-005
  2.5064700E-004 -1.2573300E-003  3.0998300E-005
  2.4481500E-004 -1.3571100E-003  2.8068100E-005
  2.3679300E-004 -1.4543000E-003  2.4959400E-005
  2.2635000E-004 -1.5494200E-003  2.1691600E-005
  2.1372400E-004 -1.6403500E-003  1.8285600E-005
  1.9867000E-004 -1.7273800E-003  1.4759200E-005
  1.8144500E-004 -1.8087100E-003  1.1131600E-005
  1.6181000E-004 -1.8842300E-003  7.4204000E-006
  1.4000900E-004 -1.9525600E-003  3.6434000E-006
  1.1583700E-004 -2.0131800E-003 -1.8107000E-007
  8.9497900E-005 -2.0651300E-003 -4.0363300E-006
  6.0842900E-005 -2.1075400E-003 -7.9033100E-006
  3.0011000E-005 -2.1397600E-003 -1.1765700E-005
 -3.0747000E-006 -2.1607300E-003 -1.5604000E-005
 -3.8347500E-005 -2.1699600E-003 -1.9401700E-005
 -7.5817600E-005 -2.1664000E-003 -2.3139700E-005
 -1.1547800E-004 -2.1495200E-003 -2.6800800E-005
 -1.5729300E-004 -2.1184900E-003 -3.0366600E-005
 -2.0129200E-004 -2.0726000E-003 -3.3819700E-005
 -2.4741900E-004 -2.0113000E-003 -3.7142500E-005
 -2.9571000E-004 -1.9337300E-003 -4.0317500E-005
 -3.4611700E-004 -1.8396000E-003 -4.3328700E-005
 -3.9865900E-004 -1.7279600E-003 -4.6158800E-005
 -4.5331500E-004 -1.5987100E-003 -4.8793500E-005
 -5.1006700E-004 -1.4509200E-003 -5.1216800E-005
 -5.6892700E-004 -1.2845500E-003 -5.3415700E-005
 -6.2984300E-004 -1.0988700E-003 -5.5376700E-005
 -6.9285000E-004 -8.9376100E-004 -5.7088600E-005
 -7.5786800E-004 -6.6879000E-004 -5.8540800E-005
 -8.2494100E-004 -4.2373400E-004 -5.9724200E-005
 -8.9397600E-004 -1.5846200E-004 -6.0632000E-005
 -9.6500300E-004  1.2732000E-004 -6.1257700E-005
 -1.0379300E-003  4.3349200E-004 -6.1598300E-005
 -1.1127700E-003  7.6033200E-004 -6.1650800E-005
 -1.1894300E-003  1.1075700E-003 -6.1416000E-005
 -1.2678700E-003  1.4753500E-003 -6.0894900E-005
 -1.3480500E-003  1.8633500E-003 -6.0092000E-005
 -1.4298700E-003  2.2715200E-003 -5.9012700E-005
 -1.5133000E-003  2.6995400E-003 -5.7665100E-005
 -1.5982100E-003  3.1471000E-003 -5.6059100E-005
 -1.6845600E-003  3.6139400E-003 -5.4206000E-005
 -1.7722200E-003  4.0995000E-003 -5.2119900E-005
 -1.8611400E-003  4.6035500E-003 -4.9815100E-005
 -1.9511800E-003  5.1253400E-003 -4.7309300E-005
 -2.0422500E-003  5.6646000E-003 -4.4619600E-005
 -2.1342500E-003  6.2205300E-003 -4.1765900E-005
 -2.2270500E-003  6.7926900E-003 -3.8767900E-005
 -2.3205700E-003  7.3803400E-003 -3.5647000E-005
 -2.4146600E-003  7.9828700E-003 -3.2424700E-005
 -2.5092400E-003  8.5996100E-003 -2.9122900E-005
 -2.6041700E-003  9.2297600E-003 -2.5764000E-005
 -2.6993800E-003  9.8727700E-003 -2.2369600E-005
 -2.7947200E-003  1.0527700E-002 -1.8962300E-005
 -2.8901300E-003  1.1194100E-002 -1.5562500E-005
 -2.9855000E-003  1.1870900E-002 -1.2191700E-005
 -3.0807200E-003  1.2557700E-002 -8.8688600E-006
 -3.1757500E-003  1.3253600E-002 -5.6132300E-006
 -3.2704500E-003  1.3958000E-002 -2.4417800E-006
 -3.3648500E-003  1.4670100E-002  6.2927200E-007
 -3.4587700E-003  1.5389200E-002  3.5856000E-006
 -3.5522900E-003  1.6114900E-002  6.4146800E-006
 -3.6452400E-003  1.6846300E-002  9.1051000E-006
 -3.7377200E-003  1.7583100E-002  1.1648500E-005
 -3.8295800E-003  1.8324300E-002  1.4036900E-005
 -3.9209200E-003  1.9069800E-002  1.6265900E-005
 -4.0116300E-003  1.9818800E-002  1.8331900E-005
 -4.1018100E-003  2.0571200E-002  2.0233800E-005
 -4.1913700E-003  2.1326200E-002  2.1972300E-005
 -4.2804300E-003  2.2083700E-002  2.3549400E-005
 -4.3689200E-003  2.2843000E-002  2.4969800E-005
 -4.4569500E-003  2.3604300E-002  2.6238200E-005
 -4.5444400E-003  2.4366700E-002  2.7362400E-005
 -4.6315700E-003  2.5130500E-002  2.8349300E-005
 -4.7182000E-003  2.5895000E-002  2.9208600E-005
 -4.8045600E-003  2.6660600E-002  2.9948700E-005
 -4.8904500E-003  2.7426400E-002  3.0580300E-005
 -4.9762200E-003  2.8193200E-002  3.1111500E-005
 -5.0614800E-003  2.8959600E-002  3.1553100E-005
 -5.1468000E-003  2.9727100E-002  3.1911000E-005
 -5.2315000E-003  3.0493700E-002  3.2194900E-005
 -5.3165400E-003  3.1261700E-002  3.2404500E-005
 -5.4004900E-003  3.2027900E-002  3.2545300E-005
 -5.1095700E-003  3.2060900E-002  3.2599300E-005
 -5.0249300E-003  3.1293300E-002  3.2465500E-005
 -4.9402400E-003  3.0526400E-002  3.2265000E-005
 -4.8553200E-003  2.9758800E-002  3.1992700E-005
 -4.7702100E-003  2.8992000E-002  3.1647700E-005
 -4.6848900E-003  2.8224800E-002  3.1222100E-005
 -4.5993300E-003  2.7458500E-002  3.0709000E-005
 -4.5135100E-003  2.6692100E-002  3.0099000E-005
 -4.4274000E-003  2.5926700E-002  2.9383200E-005
 -4.3409800E-003  2.5161700E-002  2.8551900E-005
 -4.2542200E-003  2.4397900E-002  2.7596200E-005
 -4.1670900E-003  2.3635000E-002  2.6507300E-005
 -4.0796000E-003  2.2873600E-002  2.5277600E-005
 -3.9916700E-003  2.2113700E-002  2.3900200E-005
 -3.9033700E-003  2.1356000E-002  2.2369900E-005
 -3.8146000E-003  2.0600400E-002  2.0682400E-005
 -3.7254500E-003  1.9847700E-002  1.8835500E-005
 -3.6358400E-003  1.9098000E-002  1.6828600E-005
 -3.5458700E-003  1.8351900E-002  1.4662700E-005
 -3.4554700E-003  1.7609900E-002  1.2341000E-005
 -3.3647300E-003  1.6872500E-002  9.8683300E-006
 -3.2736500E-003  1.6140200E-002  7.2518100E-006
 -3.1823000E-003  1.5413800E-002  4.5000700E-006
 -3.0907200E-003  1.4693600E-002  1.6238500E-006
 -2.9989600E-003  1.3980600E-002 -1.3644600E-006
 -2.9071200E-003  1.3275100E-002 -4.4509200E-006
 -2.8152300E-003  1.2578100E-002 -7.6198900E-006
 -2.7234300E-003  1.1890200E-002 -1.0854500E-005
 -2.6317500E-003  1.1212100E-002 -1.4136400E-005
 -2.5403200E-003  1.0544500E-002 -1.7446500E-005
 -2.4492300E-003  9.8881900E-003 -2.0764600E-005
 -2.3585800E-003  9.2439200E-003 -2.4069900E-005
 -2.2684800E-003  8.6123300E-003 -2.7341100E-005
 -2.1790200E-003  7.9942300E-003 -3.0556700E-005
 -2.0903400E-003  7.3902800E-003 -3.3695000E-005
 -2.0024900E-003  6.8011900E-003 -3.6734500E-005
 -1.9156400E-003  6.2276400E-003 -3.9654200E-005
 -1.8298400E-003  5.6702300E-003 -4.2433400E-005
 -1.7452300E-003  5.1296500E-003 -4.5052600E-005
 -1.6618600E-003  4.6063800E-003 -4.7492700E-005
 -1.5798500E-003  4.1010700E-003 -4.9736400E-005
 -1.4992800E-003  3.6141100E-003 -5.1767100E-005
 -1.4202200E-003  3.1460600E-003 -5.3570300E-005
 -1.3427600E-003  2.6972500E-003 -5.5132600E-005
 -1.2669300E-003  2.2680800E-003 -5.6442700E-005
 -1.1928400E-003  1.8588400E-003 -5.7491100E-005
 -1.1204700E-003  1.4697700E-003 -5.8269900E-005
 -1.0499300E-003  1.1011100E-003 -5.8773500E-005
 -9.8121400E-004  7.5292300E-004 -5.8998100E-005
 -9.1437800E-004  4.2539000E-004 -5.8942000E-005
 -8.4943000E-004  1.1843100E-004 -5.8605200E-005
 -7.8638700E-004 -1.6788700E-004 -5.7989900E-005
 -7.2528300E-004 -4.3373400E-004 -5.7099900E-005
 -6.6608700E-004 -6.7920300E-004 -5.5940700E-005
 -6.0885600E-004 -9.0450800E-004 -5.4519600E-005
 -5.5352900E-004 -1.1099300E-003 -5.2845400E-005
 -5.0016900E-004 -1.2957000E-003 -5.0928200E-005
 -4.4871000E-004 -1.4622900E-003 -4.8779500E-005
 -3.9919600E-004 -1.6099500E-003 -4.6412000E-005
 -3.5158900E-004 -1.7393100E-003 -4.3839100E-005
 -3.0589200E-004 -1.8506600E-003 -4.1075500E-005
 -2.6211400E-004 -1.9447400E-003 -3.8136400E-005
 -2.2020700E-004 -2.0219300E-003 -3.5037900E-005
 -1.8023200E-004 -2.0830100E-003 -3.1796200E-005
 -1.4210000E-004 -2.1284900E-003 -2.8428300E-005
 -1.0590700E-004 -2.1591200E-003 -2.4951400E-005
 -7.1551300E-005 -2.1755800E-003 -2.1382700E-005
 -3.9130200E-005 -2.1785800E-003 -1.7740100E-005
 -8.5640100E-006 -2.1689200E-003 -1.4040800E-005
  2.0079600E-005 -2.1473200E-003 -1.0302900E-005
  4.6831000E-005 -2.1146100E-003 -6.5436200E-006
  7.1674100E-005 -2.0715800E-003 -2.7808100E-006
  9.4580800E-005 -2.0190200E-003  9.6828800E-007
  1.1558400E-004 -1.9578800E-003  4.6859800E-006
  1.3461500E-004 -1.8887700E-003  8.3551700E-006
  1.5172800E-004 -1.8128900E-003  1.1958300E-005
  1.6685600E-004 -1.7306200E-003  1.5477900E-005
  1.8003200E-004 -1.6434000E-003  1.8896300E-005
  1.9123000E-004 -1.5513800E-003  2.2195400E-005
  2.0043400E-004 -1.4562300E-003  2.5357000E-005
  2.0768900E-004 -1.3578800E-003  2.8361500E-005
  2.1291100E-004 -1.2581600E-003  3.1188900E-005
  2.1621600E-004 -1.1568400E-003  3.3817500E-005
  2.1748400E-004 -1.0558900E-003  3.6224000E-005
  2.1685200E-004 -9.5488300E-004  3.8382400E-005
  2.1423900E-004 -8.5594800E-004  4.0264000E-005
  2.0970600E-004 -7.5842100E-004  4.1835900E-005
  2.0333600E-004 -6.6467200E-004  4.3060200E-005
  1.9496800E-004 -5.7362300E-004  4.3893000E-005
  1.8503200E-004 -4.8812300E-004  4.4281900E-005
  1.7291300E-004 -4.0636200E-004  4.4165200E-005
  1.5968600E-004 -3.3204400E-004  4.3467800E-005
  1.4390000E-004 -2.6216100E-004  4.2099700E-005
  1.2778300E-004 -2.0181100E-004  3.9949100E-005
  1.0833800E-004 -1.4615600E-004  3.6880600E-005
  8.9950300E-005 -1.0242700E-004  3.2720200E-005
  6.6677800E-005 -6.3313900E-005  2.7264300E-005
  4.7342900E-005 -3.8662100E-005  2.0232500E-005
  2.0399500E-005 -1.8485000E-005  1.1384700E-005
 -4.8181000E-003  3.2093200E-002  3.2758800E-005
 -4.7336600E-003  3.1325700E-002  3.2646600E-005
 -4.6488800E-003  3.0558400E-002  3.2470900E-005
 -4.5639700E-003  2.9791100E-002  3.2230900E-005
 -4.4789600E-003  2.9023900E-002  3.1923200E-005
 -4.3936700E-003  2.8257000E-002  3.1542900E-005
 -4.3082900E-003  2.7490200E-002  3.1082200E-005
 -4.2226000E-003  2.6724000E-002  3.0533500E-005
 -4.1367500E-003  2.5958200E-002  2.9887600E-005
 -4.0505800E-003  2.5193200E-002  2.9136000E-005
 -3.9642000E-003  2.4428900E-002  2.8269900E-005
 -3.8775000E-003  2.3665900E-002  2.7281300E-005
 -3.7905300E-003  2.2904100E-002  2.6162600E-005
 -3.7032500E-003  2.2144100E-002  2.4907700E-005
 -3.6156800E-003  2.1385800E-002  2.3511100E-005
 -3.5278300E-003  2.0629900E-002  2.1969000E-005
 -3.4396800E-003  1.9876600E-002  2.0279000E-005
 -3.3512900E-003  1.9126500E-002  1.8440400E-005
 -3.2626400E-003  1.8379700E-002  1.6454200E-005
 -3.1738000E-003  1.7637100E-002  1.4323000E-005
 -3.0848000E-003  1.6899000E-002  1.2051400E-005
 -2.9956700E-003  1.6166000E-002  9.6456300E-006
 -2.9065000E-003  1.5438700E-002  7.1138600E-006
 -2.8173100E-003  1.4717700E-002  4.4658000E-006
 -2.7282200E-003  1.4003700E-002  1.7130200E-006
 -2.6392600E-003  1.3297300E-002 -1.1316300E-006
 -2.5505600E-003  1.2599200E-002 -4.0537000E-006
 -2.4621700E-003  1.1910200E-002 -7.0373900E-006
 -2.3742200E-003  1.1231000E-002 -1.0065900E-005
 -2.2867800E-003  1.0562200E-002 -1.3121300E-005
 -2.1999500E-003  9.9046600E-003 -1.6184900E-005
 -2.1138700E-003  9.2590900E-003 -1.9237200E-005
 -2.0285900E-003  8.6262200E-003 -2.2258700E-005
 -1.9442700E-003  8.0067900E-003 -2.5229100E-005
 -1.8609500E-003  7.4015000E-003 -2.8128200E-005
 -1.7788000E-003  6.8110600E-003 -3.0936200E-005
 -1.6978400E-003  6.2361400E-003 -3.3633300E-005
 -1.6182400E-003  5.6774000E-003 -3.6200400E-005
 -1.5400300E-003  5.1354500E-003 -3.8619100E-005
 -1.4633200E-003  4.6108900E-003 -4.0871800E-005
 -1.3881700E-003  4.1042500E-003 -4.2942200E-005
 -1.3146500E-003  3.6160700E-003 -4.4815000E-005
 -1.2428400E-003  3.1467700E-003 -4.6476400E-005
 -1.1727600E-003  2.6968000E-003 -4.7914200E-005
 -1.1044900E-003  2.2665000E-003 -4.9117700E-005
 -1.0380300E-003  1.8562000E-003 -5.0078000E-005
 -9.7345000E-004  1.4661500E-003 -5.0787900E-005
 -9.1072500E-004  1.0965500E-003 -5.1242100E-005
 -8.4991000E-004  7.4753500E-004 -5.1437200E-005
 -7.9098700E-004  4.1920200E-004 -5.1371500E-005
 -7.3395900E-004  1.1157200E-004 -5.1045200E-005
 -6.7884300E-004 -1.7538000E-004 -5.0460100E-005
 -6.2558400E-004 -4.4175000E-004 -4.9620100E-005
 -5.7423100E-004 -6.8766900E-004 -4.8530400E-005
 -5.2468700E-004 -9.1335800E-004 -4.7197900E-005
 -4.7701900E-004 -1.1190400E-003 -4.5630900E-005
 -4.3111700E-004 -1.3050700E-003 -4.3838900E-005
 -3.8703400E-004 -1.4717400E-003 -4.1832900E-005
 -3.4468400E-004 -1.6195200E-003 -3.9624700E-005
 -3.0408100E-004 -1.7488100E-003 -3.7227300E-005
 -2.6519100E-004 -1.8601500E-003 -3.4654200E-005
 -2.2797000E-004 -1.9540300E-003 -3.1920100E-005
 -1.9244900E-004 -2.0310900E-003 -2.9039900E-005
 -1.5853000E-004 -2.0918700E-003 -2.6029300E-005
 -1.2629600E-004 -2.1370900E-003 -2.2904100E-005
 -9.5624100E-005 -2.1673600E-003 -1.9680600E-005
 -6.6611600E-005 -2.1834600E-003 -1.6375400E-005
 -3.9154900E-005 -2.1860400E-003 -1.3004800E-005
 -1.3321500E-005 -2.1759500E-003 -9.5857000E-006
  1.0930900E-005 -2.1538600E-003 -6.1345900E-006
  3.3601100E-005 -2.1206900E-003 -2.6683200E-006
  5.4644400E-005 -2.0771100E-003  7.9676900E-007
  7.4139800E-005 -2.0241200E-003  4.2439400E-006
  9.1960600E-005 -1.9623400E-003  7.6568500E-006
  1.0824700E-004 -1.8928700E-003  1.1019100E-005
  1.2282400E-004 -1.8162600E-003  1.4314300E-005
  1.3585400E-004 -1.7337100E-003  1.7525900E-005
  1.4716400E-004 -1.6456800E-003  2.0637300E-005