# vtk DataFile Version 3.0
MMH: CalculiX output 'object.frd' file to 'vtk' format
ASCII
DATASET UNSTRUCTURED_GRID
POINTS 3232 double
 6.00000000E-001 2.10000000E-001 0.00000000E+000
 6.00000000E-001 2.08667000E-001 0.00000000E+000
 6.00000000E-001 2.07333000E-001 0.00000000E+000
 6.00000000E-001 2.06000000E-001 0.00000000E+000
 6.00000000E-001 2.04667000E-001 0.00000000E+000
 6.00000000E-001 2.03333000E-001 0.00000000E+000
 6.00000000E-001 2.02000000E-001 0.00000000E+000
 6.00000000E-001 2.00667000E-001 0.00000000E+000
 6.00000000E-001 1.99333000E-001 0.00000000E+000
 6.00000000E-001 1.98000000E-001 0.00000000E+000
 6.00000000E-001 1.96667000E-001 0.00000000E+000
 6.00000000E-001 1.95333000E-001 0.00000000E+000
 6.00000000E-001 1.94000000E-001 0.00000000E+000
 6.00000000E-001 1.92667000E-001 0.00000000E+000
 6.00000000E-001 1.91333000E-001 0.00000000E+000
 6.00000000E-001 1.90000000E-001 0.00000000E+000
 5.96490000E-001 1.90000000E-001 0.00000000E+000
 5.92980000E-001 1.90000000E-001 0.00000000E+000
 5.89470000E-001 1.90000000E-001 0.00000000E+000
 5.85960000E-001 1.90000000E-001 0.00000000E+000
 5.82449000E-001 1.90000000E-001 0.00000000E+000
 5.78939000E-001 1.90000000E-001 0.00000000E+000
 5.75429000E-001 1.90000000E-001 0.00000000E+000
 5.71919000E-001 1.90000000E-001 0.00000000E+000
 5.68409000E-001 1.90000000E-001 0.00000000E+000
 5.64899000E-001 1.90000000E-001 0.00000000E+000
 5.61389000E-001 1.90000000E-001 0.00000000E+000
 5.57879000E-001 1.90000000E-001 0.00000000E+000
 5.54369000E-001 1.90000000E-001 0.00000000E+000
 5.50859000E-001 1.90000000E-001 0.00000000E+000
 5.47348000E-001 1.90000000E-001 0.00000000E+000
 5.43838000E-001 1.90000000E-001 0.00000000E+000
 5.40328000E-001 1.90000000E-001 0.00000000E+000
 5.36818000E-001 1.90000000E-001 0.00000000E+000
 5.33308000E-001 1.90000000E-001 0.00000000E+000
 5.29798000E-001 1.90000000E-001 0.00000000E+000
 5.26288000E-001 1.90000000E-001 0.00000000E+000
 5.22778000E-001 1.90000000E-001 0.00000000E+000
 5.19268000E-001 1.90000000E-001 0.00000000E+000
 5.15758000E-001 1.90000000E-001 0.00000000E+000
 5.12247000E-001 1.90000000E-001 0.00000000E+000
 5.08737000E-001 1.90000000E-001 0.00000000E+000
 5.05227000E-001 1.90000000E-001 0.00000000E+000
 5.01717000E-001 1.90000000E-001 0.00000000E+000
 4.98207000E-001 1.90000000E-001 0.00000000E+000
 4.94697000E-001 1.90000000E-001 0.00000000E+000
 4.91187000E-001 1.90000000E-001 0.00000000E+000
 4.87677000E-001 1.90000000E-001 0.00000000E+000
 4.84167000E-001 1.90000000E-001 0.00000000E+000
 4.80657000E-001 1.90000000E-001 0.00000000E+000
 4.77146000E-001 1.90000000E-001 0.00000000E+000
 4.73636000E-001 1.90000000E-001 0.00000000E+000
 4.70126000E-001 1.90000000E-001 0.00000000E+000
 4.66616000E-001 1.90000000E-001 0.00000000E+000
 4.63106000E-001 1.90000000E-001 0.00000000E+000
 4.59596000E-001 1.90000000E-001 0.00000000E+000
 4.56086000E-001 1.90000000E-001 0.00000000E+000
 4.52576000E-001 1.90000000E-001 0.00000000E+000
 4.49066000E-001 1.90000000E-001 0.00000000E+000
 4.45556000E-001 1.90000000E-001 0.00000000E+000
 4.42045000E-001 1.90000000E-001 0.00000000E+000
 4.38535000E-001 1.90000000E-001 0.00000000E+000
 4.35025000E-001 1.90000000E-001 0.00000000E+000
 4.31515000E-001 1.90000000E-001 0.00000000E+000
 4.28005000E-001 1.90000000E-001 0.00000000E+000
 4.24495000E-001 1.90000000E-001 0.00000000E+000
 4.20985000E-001 1.90000000E-001 0.00000000E+000
 4.17475000E-001 1.90000000E-001 0.00000000E+000
 4.13965000E-001 1.90000000E-001 0.00000000E+000
 4.10455000E-001 1.90000000E-001 0.00000000E+000
 4.06944000E-001 1.90000000E-001 0.00000000E+000
 4.03434000E-001 1.90000000E-001 0.00000000E+000
 3.99924000E-001 1.90000000E-001 0.00000000E+000
 3.96414000E-001 1.90000000E-001 0.00000000E+000
 3.92904000E-001 1.90000000E-001 0.00000000E+000
 3.89394000E-001 1.90000000E-001 0.00000000E+000
 3.85884000E-001 1.90000000E-001 0.00000000E+000
 3.82374000E-001 1.90000000E-001 0.00000000E+000
 3.78864000E-001 1.90000000E-001 0.00000000E+000
 3.75353000E-001 1.90000000E-001 0.00000000E+000
 3.71843000E-001 1.90000000E-001 0.00000000E+000
 3.68333000E-001 1.90000000E-001 0.00000000E+000
 3.64823000E-001 1.90000000E-001 0.00000000E+000
 3.61313000E-001 1.90000000E-001 0.00000000E+000
 3.57803000E-001 1.90000000E-001 0.00000000E+000
 3.54293000E-001 1.90000000E-001 0.00000000E+000
 3.50783000E-001 1.90000000E-001 0.00000000E+000
 3.47273000E-001 1.90000000E-001 0.00000000E+000
 3.43763000E-001 1.90000000E-001 0.00000000E+000
 3.40252000E-001 1.90000000E-001 0.00000000E+000
 3.36742000E-001 1.90000000E-001 0.00000000E+000
 3.33232000E-001 1.90000000E-001 0.00000000E+000
 3.29722000E-001 1.90000000E-001 0.00000000E+000
 3.26212000E-001 1.90000000E-001 0.00000000E+000
 3.22702000E-001 1.90000000E-001 0.00000000E+000
 3.19192000E-001 1.90000000E-001 0.00000000E+000
 3.15682000E-001 1.90000000E-001 0.00000000E+000
 3.12172000E-001 1.90000000E-001 0.00000000E+000
 3.08661000E-001 1.90000000E-001 0.00000000E+000
 3.05151000E-001 1.90000000E-001 0.00000000E+000
 3.01641000E-001 1.90000000E-001 0.00000000E+000
 2.98131000E-001 1.90000000E-001 0.00000000E+000
 2.94621000E-001 1.90000000E-001 0.00000000E+000
 2.91111000E-001 1.90000000E-001 0.00000000E+000
 2.87601000E-001 1.90000000E-001 0.00000000E+000
 2.84091000E-001 1.90000000E-001 0.00000000E+000
 2.80581000E-001 1.90000000E-001 0.00000000E+000
 2.77071000E-001 1.90000000E-001 0.00000000E+000
 2.73560000E-001 1.90000000E-001 0.00000000E+000
 2.70050000E-001 1.90000000E-001 0.00000000E+000
 2.66540000E-001 1.90000000E-001 0.00000000E+000
 2.63030000E-001 1.90000000E-001 0.00000000E+000
 2.59520000E-001 1.90000000E-001 0.00000000E+000
 2.56010000E-001 1.90000000E-001 0.00000000E+000
 2.52500000E-001 1.90000000E-001 0.00000000E+000
 2.48990000E-001 1.90000000E-001 0.00000000E+000
 2.48990000E-001 1.91333000E-001 0.00000000E+000
 2.48990000E-001 1.92667000E-001 0.00000000E+000
 2.48990000E-001 1.94000000E-001 0.00000000E+000
 2.48990000E-001 1.95333000E-001 0.00000000E+000
 2.48990000E-001 1.96667000E-001 0.00000000E+000
 2.48990000E-001 1.98000000E-001 0.00000000E+000
 2.48990000E-001 1.99333000E-001 0.00000000E+000
 2.48990000E-001 2.00667000E-001 0.00000000E+000
 2.48990000E-001 2.02000000E-001 0.00000000E+000
 2.48990000E-001 2.03333000E-001 0.00000000E+000
 2.48990000E-001 2.04667000E-001 0.00000000E+000
 2.48990000E-001 2.06000000E-001 0.00000000E+000
 2.48990000E-001 2.07333000E-001 0.00000000E+000
 2.48990000E-001 2.08667000E-001 0.00000000E+000
 2.48990000E-001 2.10000000E-001 0.00000000E+000
 2.52500000E-001 2.10000000E-001 0.00000000E+000
 2.56010000E-001 2.10000000E-001 0.00000000E+000
 2.59520000E-001 2.10000000E-001 0.00000000E+000
 2.63030000E-001 2.10000000E-001 0.00000000E+000
 2.66540000E-001 2.10000000E-001 0.00000000E+000
 2.70050000E-001 2.10000000E-001 0.00000000E+000
 2.73560000E-001 2.10000000E-001 0.00000000E+000
 2.77071000E-001 2.10000000E-001 0.00000000E+000
 2.80581000E-001 2.10000000E-001 0.00000000E+000
 2.84091000E-001 2.10000000E-001 0.00000000E+000
 2.87601000E-001 2.10000000E-001 0.00000000E+000
 2.91111000E-001 2.10000000E-001 0.00000000E+000
 2.94621000E-001 2.10000000E-001 0.00000000E+000
 2.98131000E-001 2.10000000E-001 0.00000000E+000
 3.01641000E-001 2.10000000E-001 0.00000000E+000
 3.05151000E-001 2.10000000E-001 0.00000000E+000
 3.08661000E-001 2.10000000E-001 0.00000000E+000
 3.12172000E-001 2.10000000E-001 0.00000000E+000
 3.15682000E-001 2.10000000E-001 0.00000000E+000
 3.19192000E-001 2.10000000E-001 0.00000000E+000
 3.22702000E-001 2.10000000E-001 0.00000000E+000
 3.26212000E-001 2.10000000E-001 0.00000000E+000
 3.29722000E-001 2.10000000E-001 0.00000000E+000
 3.33232000E-001 2.10000000E-001 0.00000000E+000
 3.36742000E-001 2.10000000E-001 0.00000000E+000
 3.40252000E-001 2.10000000E-001 0.00000000E+000
 3.43763000E-001 2.10000000E-001 0.00000000E+000
 3.47273000E-001 2.10000000E-001 0.00000000E+000
 3.50783000E-001 2.10000000E-001 0.00000000E+000
 3.54293000E-001 2.10000000E-001 0.00000000E+000
 3.57803000E-001 2.10000000E-001 0.00000000E+000
 3.61313000E-001 2.10000000E-001 0.00000000E+000
 3.64823000E-001 2.10000000E-001 0.00000000E+000
 3.68333000E-001 2.10000000E-001 0.00000000E+000
 3.71843000E-001 2.10000000E-001 0.00000000E+000
 3.75353000E-001 2.10000000E-001 0.00000000E+000
 3.78864000E-001 2.10000000E-001 0.00000000E+000
 3.82374000E-001 2.10000000E-001 0.00000000E+000
 3.85884000E-001 2.10000000E-001 0.00000000E+000
 3.89394000E-001 2.10000000E-001 0.00000000E+000
 3.92904000E-001 2.10000000E-001 0.00000000E+000
 3.96414000E-001 2.10000000E-001 0.00000000E+000
 3.99924000E-001 2.10000000E-001 0.00000000E+000
 4.03434000E-001 2.10000000E-001 0.00000000E+000
 4.06944000E-001 2.10000000E-001 0.00000000E+000
 4.10455000E-001 2.10000000E-001 0.00000000E+000
 4.13965000E-001 2.10000000E-001 0.00000000E+000
 4.17475000E-001 2.10000000E-001 0.00000000E+000
 4.20985000E-001 2.10000000E-001 0.00000000E+000
 4.24495000E-001 2.10000000E-001 0.00000000E+000
 4.28005000E-001 2.10000000E-001 0.00000000E+000
 4.31515000E-001 2.10000000E-001 0.00000000E+000
 4.35025000E-001 2.10000000E-001 0.00000000E+000
 4.38535000E-001 2.10000000E-001 0.00000000E+000
 4.42045000E-001 2.10000000E-001 0.00000000E+000
 4.45556000E-001 2.10000000E-001 0.00000000E+000
 4.49066000E-001 2.10000000E-001 0.00000000E+000
 4.52576000E-001 2.10000000E-001 0.00000000E+000
 4.56086000E-001 2.10000000E-001 0.00000000E+000
 4.59596000E-001 2.10000000E-001 0.00000000E+000
 4.63106000E-001 2.10000000E-001 0.00000000E+000
 4.66616000E-001 2.10000000E-001 0.00000000E+000
 4.70126000E-001 2.10000000E-001 0.00000000E+000
 4.73636000E-001 2.10000000E-001 0.00000000E+000
 4.77146000E-001 2.10000000E-001 0.00000000E+000
 4.80657000E-001 2.10000000E-001 0.00000000E+000
 4.84167000E-001 2.10000000E-001 0.00000000E+000
 4.87677000E-001 2.10000000E-001 0.00000000E+000
 4.91187000E-001 2.10000000E-001 0.00000000E+000
 4.94697000E-001 2.10000000E-001 0.00000000E+000
[...]
POINT_DATA 3232
VECTORS DISP double
 -3.0545300E-003  2.6893400E-002  7.6306900E-005
 -2.8592000E-003  2.6906300E-002  7.6312600E-005
 -2.6664700E-003  2.6920400E-002  7.6328100E-005
 -2.4723800E-003  2.6934500E-002  7.6375300E-005
 -2.2788300E-003  2.6948700E-002  7.6465800E-005
 -2.0849000E-003  2.6962900E-002  7.6591300E-005
 -1.8910900E-003  2.6977100E-002  7.6747200E-005
 -1.6972000E-003  2.6991300E-002  7.6923900E-005
 -1.5032800E-003  2.7005600E-002  7.7113900E-005
 -1.3093500E-003  2.7019800E-002  7.7307900E-005
 -1.1153600E-003  2.7034100E-002  7.7495900E-005
 -9.2144800E-004  2.7048300E-002  7.7670200E-005
 -7.2726400E-004  2.7062600E-002  7.7820700E-005
 -5.3347500E-004  2.7076900E-002  7.7941200E-005
 -3.3882300E-004  2.7091300E-002  7.8016400E-005
 -1.4564300E-004  2.7105200E-002  7.8038200E-005
 -1.0833000E-004  2.6594600E-002  7.8091100E-005
 -7.2246200E-005  2.6083100E-002  7.8238500E-005
 -3.5499200E-005  2.5572600E-002  7.8466400E-005
  7.6642900E-007  2.5061400E-002  7.8773500E-005
  3.7179800E-005  2.4550700E-002  7.9154900E-005
  7.3315600E-005  2.4039700E-002  7.9606400E-005
  1.0943800E-004  2.3529100E-002  8.0126200E-005
  1.4538100E-004  2.3018400E-002  8.0713300E-005
  1.8125100E-004  2.2508000E-002  8.1369700E-005
  2.1697600E-004  2.1997700E-002  8.2097400E-005
  2.5257900E-004  2.1487700E-002  8.2901000E-005
  2.8802200E-004  2.0977800E-002  8.3784600E-005
  3.2327000E-004  2.0468200E-002  8.4753900E-005
  3.5829800E-004  1.9958800E-002  8.5813500E-005
  3.9302600E-004  1.9449800E-002  8.6969000E-005
  4.2742700E-004  1.8941200E-002  8.8224800E-005
  4.6138800E-004  1.8433100E-002  8.9585200E-005
  4.9487500E-004  1.7925500E-002  9.1053300E-005
  5.2775200E-004  1.7418700E-002  9.2631500E-005
  5.5996500E-004  1.6912800E-002  9.4321100E-005
  5.9137700E-004  1.6408000E-002  9.6121900E-005
  6.2190200E-004  1.5904400E-002  9.8032900E-005
  6.5141900E-004  1.5402400E-002  1.0005100E-004
  6.7980500E-004  1.4902300E-002  1.0217300E-004
  7.0696400E-004  1.4404200E-002  1.0439200E-004
  7.3274400E-004  1.3908700E-002  1.0670300E-004
  7.5707100E-004  1.3415900E-002  1.0909700E-004
  7.7978100E-004  1.2926500E-002  1.1156400E-004
  8.0081600E-004  1.2440600E-002  1.1409500E-004
  8.2002100E-004  1.1958900E-002  1.1667600E-004
  8.3733700E-004  1.1481500E-002  1.1929700E-004
  8.5264800E-004  1.1009400E-002  1.2194100E-004
  8.6587800E-004  1.0542600E-002  1.2459700E-004
  8.7697300E-004  1.0081900E-002  1.2724700E-004
  8.8583100E-004  9.6276600E-003  1.2987700E-004
  8.9246800E-004  9.1804000E-003  1.3247200E-004
  8.9676800E-004  8.7407700E-003  1.3501300E-004
  8.9880000E-004  8.3089900E-003  1.3748700E-004
  8.9846700E-004  7.8859600E-003  1.3987600E-004
  8.9585700E-004  7.4716800E-003  1.4216600E-004
  8.9093000E-004  7.0671500E-003  1.4434000E-004
  8.8376000E-004  6.6722900E-003  1.4638500E-004
  8.7439200E-004  6.2880100E-003  1.4828600E-004
  8.6286400E-004  5.9143300E-003  1.5003100E-004
  8.4931500E-004  5.5518400E-003  1.5160800E-004
  8.3375000E-004  5.2008600E-003  1.5300600E-004
  8.1638000E-004  4.8615200E-003  1.5421500E-004
  7.9720300E-004  4.5344300E-003  1.5522700E-004
  7.7645800E-004  4.2193300E-003  1.5603500E-004
  7.5417800E-004  3.9170200E-003  1.5663200E-004
  7.3057900E-004  3.6269500E-003  1.5701600E-004
  7.0576500E-004  3.3499300E-003  1.5718200E-004
  6.7989000E-004  3.0853900E-003  1.5712900E-004
  6.5314300E-004  2.8338400E-003  1.5685600E-004
  6.2561100E-004  2.5949400E-003  1.5636400E-004
  5.9754100E-004  2.3687400E-003  1.5565500E-004
  5.6898200E-004  2.1552300E-003  1.5473100E-004
  5.4019400E-004  1.9539700E-003  1.5359600E-004
  5.1122500E-004  1.7652500E-003  1.5225500E-004
  4.8229800E-004  1.5882400E-003  1.5071300E-004
  4.5350200E-004  1.4233700E-003  1.4897600E-004
  4.2498200E-004  1.2696800E-003  1.4705200E-004
  3.9688200E-004  1.1274700E-003  1.4494500E-004
  3.6926700E-004  9.9589200E-004  1.4266600E-004
  3.4232100E-004  8.7492900E-004  1.4022100E-004
  3.1604900E-004  7.6405000E-004  1.3761900E-004
  2.9064200E-004  6.6278800E-004  1.3486700E-004
  2.6608200E-004  5.7097200E-004  1.3197400E-004
  2.4252400E-004  4.8775100E-004  1.2894900E-004
  2.1996500E-004  4.1321300E-004  1.2579900E-004
  1.9849400E-004  3.4630000E-004  1.2253300E-004
  1.7814700E-004  2.8715500E-004  1.1915900E-004
  1.5893300E-004  2.3476000E-004  1.1568400E-004
  1.4092300E-004  1.8908900E-004  1.1211700E-004
  1.2406900E-004  1.4937700E-004  1.0846500E-004
  1.0845300E-004  1.1529100E-004  1.0473400E-004
  9.3996000E-005  8.6409100E-005  1.0093000E-004
  8.0759400E-005  6.2077100E-005  9.7062200E-005
  6.8673200E-005  4.2192700E-005  9.3133300E-005
  5.7746800E-005  2.5878900E-005  8.9150700E-005
  4.7945300E-005  1.3213700E-005  8.5117400E-005
  3.9210600E-005  3.2943800E-006  8.1039300E-005
  3.1550700E-005 -3.8261600E-006  7.6918900E-005
  2.4849000E-005 -8.8615700E-006  7.2760200E-005
  1.9139400E-005 -1.1957100E-005  6.8565100E-005
  1.4273500E-005 -1.3497200E-005  6.4335600E-005
  1.0284100E-005 -1.3901900E-005  6.0072800E-005
  7.0216300E-006 -1.3193500E-005  5.5776400E-005
  4.4897400E-006 -1.2036100E-005  5.1446600E-005
  2.5676900E-006 -1.0162000E-005  4.7080300E-005
  1.2051900E-006 -8.3526900E-006  4.2676000E-005
  3.3083200E-007 -6.2043700E-006  3.8228500E-005
 -1.7008600E-007 -4.4376500E-006  3.3733300E-005
 -3.1740600E-007 -2.6776900E-006  2.9182400E-005
 -2.8883300E-007 -1.4404000E-006  2.4566900E-005
 -5.8611900E-008 -4.6002600E-007  1.9875700E-005
  1.2415300E-007 -1.3896900E-008  1.5092900E-005
  3.5220900E-007  1.5565300E-007  1.0202900E-005
  2.4671200E-007 -1.9621400E-007  5.1795400E-006
  0.0000000E+000  0.0000000E+000  0.0000000E+000
  0.0000000E+000  0.0000000E+000  0.0000000E+000
  0.0000000E+000  0.0000000E+000  0.0000000E+000
  0.0000000E+000  0.0000000E+000  0.0000000E+000
  0.0000000E+000  0.0000000E+000  0.0000000E+000
  0.0000000E+000  0.0000000E+000  0.0000000E+000
  0.0000000E+000  0.0000000E+000  0.0000000E+000
  0.0000000E+000  0.0000000E+000  0.0000000E+000
  0.0000000E+000  0.0000000E+000  0.0000000E+000
  0.0000000E+000  0.0000000E+000  0.0000000E+000
  0.0000000E+000  0.0000000E+000  0.0000000E+000
  0.0000000E+000  0.0000000E+000  0.0000000E+000
  0.0000000E+000  0.0000000E+000  0.0000000E+000
  0.0000000E+000  0.0000000E+000  0.0000000E+000
  0.0000000E+000  0.0000000E+000  0.0000000E+000
  0.0000000E+000  0.0000000E+000  0.0000000E+000
 -5.4494100E-008  2.0191000E-006  5.1747200E-006
  1.0740700E-006  2.3365600E-006  1.0083800E-005
  1.9391100E-006  2.6596200E-006  1.4690400E-005
  3.0984200E-006  2.0935700E-006  1.8996500E-005
  4.0076000E-006  1.3970600E-006  2.2995600E-005
  4.9183500E-006 -5.6151600E-008  2.6690800E-005
  5.5132100E-006 -1.4520000E-006  3.0082700E-005
  5.8823200E-006 -3.5301300E-006  3.3174800E-005
  5.8312000E-006 -5.2327700E-006  3.5972400E-005
  5.3401200E-006 -7.3999700E-006  3.8480100E-005
  4.3222400E-006 -8.8366400E-006  4.0706400E-005
  2.6648300E-006 -1.0298900E-005  4.2657300E-005
  3.7379000E-007 -1.0688200E-005  4.4342900E-005
 -2.7298300E-006 -1.0444300E-005  4.5771300E-005
 -6.5817900E-006 -8.7791200E-006  4.6952900E-005
 -1.1385800E-005 -5.6651100E-006  4.7897700E-005
 -1.7061300E-005 -7.1906000E-007  4.8616100E-005
 -2.3794600E-005  6.5675600E-006  4.9120300E-005
 -3.1528800E-005  1.6218900E-005  4.9420200E-005
 -4.0395700E-005  2.9099600E-005  4.9529600E-005
 -5.0392700E-005  4.5049100E-005  4.9458900E-005
 -6.1575000E-005  6.5051900E-005  4.9222500E-005
 -7.4002300E-005  8.9012900E-005  4.8831800E-005
 -8.7661800E-005  1.1777800E-004  4.8301300E-005
 -1.0265300E-004  1.5152600E-004  4.7643900E-005
 -1.1892600E-004  1.9079600E-004  4.6873500E-005
 -1.3658600E-004  2.3612900E-004  4.6004600E-005
 -1.5557800E-004  2.8772200E-004  4.5050600E-005
 -1.7598200E-004  3.4642900E-004  4.4027100E-005
 -1.9776800E-004  4.1219700E-004  4.2947300E-005
 -2.2096400E-004  4.8603500E-004  4.1827500E-005
 -2.4558600E-004  5.6782000E-004  4.0680700E-005
 -2.7159900E-004  6.5849600E-004  3.9523000E-005
 -2.9906000E-004  7.5806800E-004  3.8368100E-005
 -3.2788800E-004  8.6722800E-004  3.7231100E-005
 -3.5816000E-004  9.8622900E-004  3.6125900E-005
 -3.8977000E-004  1.1154300E-003  3.5066200E-005
 -4.2278800E-004  1.2553400E-003  3.4066200E-005
 -4.5711400E-004  1.4060000E-003  3.3137900E-005
 -4.9278300E-004  1.5681000E-003  3.2294900E-005
 -5.2972100E-004  1.7414800E-003  3.1547600E-005
 -5.6791100E-004  1.9268200E-003  3.0908000E-005
 -6.0731700E-004  2.1239500E-003  3.0385300E-005
 -6.4786800E-004  2.3333600E-003  2.9989200E-005
 -6.8955800E-004  2.5550000E-003  2.9727100E-005
 -7.3227500E-004  2.7890600E-003  2.9605900E-005
 -7.7602500E-004  3.0356500E-003  2.9631300E-005
 -8.2067900E-004  3.2946800E-003  2.9806800E-005
 -8.6623200E-004  3.5663600E-003  3.0135900E-005
 -9.1255900E-004  3.8503700E-003  3.0618800E-005
 -9.5962400E-004  4.1469500E-003  3.1256300E-005
 -1.0073300E-003  4.4556500E-003  3.2045600E-005
 -1.0555900E-003  4.7766100E-003  3.2984200E-005
 -1.1043500E-003  5.1094100E-003  3.4066700E-005
 -1.1534900E-003  5.4539500E-003  3.5287000E-005
 -1.2029600E-003  5.8099100E-003  3.6637400E-005
 -1.2526200E-003  6.1769500E-003  3.8108500E-005
 -1.3024600E-003  6.5548600E-003  3.9690500E-005
 -1.3523200E-003  6.9430700E-003  4.1371100E-005
 -1.4021800E-003  7.3414600E-003  4.3138600E-005
 -1.4519000E-003  7.7493000E-003  4.4978500E-005
 -1.5014500E-003  8.1664700E-003  4.6877700E-005
 -1.5507400E-003  8.5922200E-003  4.8820500E-005
 -1.5996800E-003  9.0263300E-003  5.0792200E-005
 -1.6482500E-003  9.4681400E-003  5.2777200E-005
 -1.6963500E-003  9.9172400E-003  5.4759900E-005
 -1.7439600E-003  1.0373200E-002  5.6725200E-005
 -1.7910000E-003  1.0835300E-002  5.8657500E-005
 -1.8374900E-003  1.1303400E-002  6.0542900E-005
 -1.8833300E-003  1.1776600E-002  6.2366800E-005
 -1.9285500E-003  1.2254800E-002  6.4117100E-005
 -1.9731300E-003  1.2737300E-002  6.5780800E-005
 -2.0170300E-003  1.3223800E-002  6.7348300E-005
 -2.0603000E-003  1.3713800E-002  6.8809500E-005
 -2.1029000E-003  1.4206900E-002  7.0157100E-005
 -2.1449100E-003  1.4702800E-002  7.1384700E-005
 -2.1862600E-003  1.5201000E-002  7.2487900E-005
 -2.2271100E-003  1.5701400E-002  7.3464500E-005
 -2.2673400E-003  1.6203300E-002  7.4313300E-005
 -2.3071500E-003  1.6707000E-002  7.5036200E-005
 -2.3464200E-003  1.7211600E-002  7.5635700E-005
 -2.3853500E-003  1.7717600E-002  7.6117200E-005
 -2.4238500E-003  1.8224100E-002  7.6487400E-005
 -2.4620800E-003  1.8731600E-002  7.6754600E-005
 -2.4999800E-003  1.9239400E-002  7.6928900E-005
 -2.5377100E-003  1.9748000E-002  7.7021100E-005
 -2.5751700E-003  2.0256700E-002  7.7044100E-005
 -2.6125500E-003  2.0766000E-002  7.7010000E-005
 -2.6497100E-003  2.1275300E-002  7.6933200E-005
 -2.6868900E-003  2.1785200E-002  7.6826000E-005
 -2.7238500E-003  2.2294900E-002  7.6703000E-005
 -2.7609100E-003  2.2805400E-002  7.6575200E-005
 -2.7976900E-003  2.3315300E-002  7.6455800E-005
 -2.8346900E-003  2.3826400E-002  7.6352500E-005
 -2.8712700E-003  2.4336400E-002  7.6276200E-005
 -2.9082700E-003  2.4848100E-002  7.6228500E-005
 -2.9444900E-003  2.5358100E-002  7.6216600E-005
 -2.9815900E-003  2.5870600E-002  7.6231700E-005
 -3.0169500E-003  2.6379900E-002  7.6272400E-005
 -2.8237600E-003  2.6395600E-002  7.6284300E-005
 -2.7870800E-003  2.5883800E-002  7.6248900E-005
 -2.7507300E-003  2.5373300E-002  7.6239900E-005
 -2.7140800E-003  2.4861700E-002  7.6257700E-005
 -2.6774200E-003  2.4351300E-002  7.6310100E-005
 -2.6406900E-003  2.3840000E-002  7.6391900E-005
 -2.6038900E-003  2.3329900E-002  7.6500000E-005
 -2.5670700E-003  2.2819100E-002  7.6625400E-005
 -2.5301600E-003  2.2309200E-002  7.6759100E-005
 -2.4932100E-003  2.1799000E-002  7.6889500E-005
 -2.4561800E-003  2.1289500E-002  7.7004600E-005
 -2.4190500E-003  2.0779800E-002  7.7091200E-005
 -2.3818200E-003  2.0270700E-002  7.7136300E-005
 -2.3444300E-003  1.9761600E-002  7.7126500E-005
 -2.3069000E-003  1.9253200E-002  7.7049200E-005
 -2.2691300E-003  1.8745000E-002  7.6892400E-005
 -2.2311600E-003  1.8237600E-002  7.6645200E-005
 -2.1928800E-003  1.7730700E-002  7.6297800E-005
 -2.1543300E-003  1.7224800E-002  7.5841900E-005
 -2.1154000E-003  1.6719700E-002  7.5270900E-005
 -2.0761100E-003  1.6216000E-002  7.4579800E-005
 -2.0364000E-003  1.5713600E-002  7.3765600E-005
 -1.9962600E-003  1.5213100E-002  7.2826900E-005
 -1.9556600E-003  1.4714500E-002  7.1764300E-005
 -1.9145600E-003  1.4218300E-002  7.0580400E-005
 -1.8729900E-003  1.3724800E-002  6.9279200E-005
 -1.8309000E-003  1.3234400E-002  6.7866900E-005
 -1.7883300E-003  1.2747500E-002  6.6350700E-005
 -1.7452400E-003  1.2264400E-002  6.4740100E-005
 -1.7016900E-003  1.1785800E-002  6.3045100E-005
 -1.6576800E-003  1.1311900E-002  6.1277500E-005
 -1.6132200E-003  1.0843300E-002  5.9449900E-005
 -1.5683900E-003  1.0380500E-002  5.7575800E-005
 -1.5231700E-003  9.9239700E-003  5.5669400E-005
 -1.4776600E-003  9.4742000E-003  5.3745300E-005
 -1.4318600E-003  9.0316900E-003  5.1818500E-005
 -1.3858900E-003  8.5969600E-003  4.9904200E-005
 -1.3397500E-003  8.1704200E-003  4.8017500E-005
 -1.2935500E-003  7.7526600E-003  4.6172900E-005
 -1.2473200E-003  7.3440000E-003  4.4385200E-005
 -1.2011700E-003  6.9450200E-003  4.2668000E-005
 -1.1551400E-003  6.5560200E-003  4.1034500E-005
 -1.1093200E-003  6.1775100E-003  3.9496900E-005
 -1.0637900E-003  5.8097500E-003  3.8066400E-005
 -1.0185900E-003  5.4531600E-003  3.6753200E-005
 -9.7385700E-004  5.1080200E-003  3.5566000E-005
 -9.2959100E-004  4.7745800E-003  3.4512500E-005
 -8.8592700E-004  4.4531400E-003  3.3598700E-005
 -8.4287900E-004  4.1437900E-003  3.2829400E-005
 -8.0055300E-004  3.8468400E-003  3.2207600E-005
 -7.5899100E-004  3.5622600E-003  3.1735400E-005
 -7.1824900E-004  3.2902700E-003  3.1412700E-005
 -6.7840900E-004  3.0308000E-003  3.1238500E-005
 -6.3947400E-004  2.7839200E-003  3.1210100E-005
 -6.0155800E-004  2.5495700E-003  3.1323400E-005
 -5.6462800E-004  2.3276500E-003  3.1573000E-005
 -5.2880400E-004  2.1181200E-003  3.1952500E-005
 -4.9404300E-004  1.9207200E-003  3.2454000E-005
 -4.6044500E-004  1.7354200E-003  3.3068600E-005
 -4.2798900E-004  1.5618000E-003  3.3786700E-005
 -3.9672200E-004  1.3998300E-003  3.4597300E-005
 -3.6666900E-004  1.2490400E-003  3.5489300E-005
 -3.3781300E-004  1.1092700E-003  3.6450200E-005
 -3.1022600E-004  9.8009000E-004  3.7467500E-005
 -2.8383900E-004  8.6119700E-004  3.8527800E-005
 -2.5875000E-004  7.5222300E-004  3.9617600E-005
 -2.3486600E-004  6.5270000E-004  4.0722900E-005
 -2.1227700E-004  5.6236200E-004  4.1829500E-005
 -1.9090700E-004  4.8058400E-004  4.2923200E-005
 -1.7079600E-004  4.0717700E-004  4.3989400E-005
 -1.5192300E-004  3.4143100E-004  4.5013900E-005
 -1.3425300E-004  2.8316000E-004  4.5982100E-005
 -1.1783000E-004  2.3167200E-004  4.6879800E-005
 -1.0254600E-004  1.8669800E-004  4.7692800E-005
 -8.8495000E-005  1.4766100E-004  4.8407100E-005
 -7.5527100E-005  1.1415100E-004  4.9008900E-005
 -6.3745100E-005  8.5752100E-005  4.9484700E-005
 -5.3000500E-005  6.1910300E-005  4.9821200E-005
 -4.3360900E-005  4.2361800E-005  5.0005100E-005
 -3.4723200E-005  2.6465900E-005  5.0024200E-005
 -2.7079600E-005  1.4039800E-005  4.9865400E-005
 -2.0403000E-005  4.4643600E-006  4.9517300E-005
 -1.4595500E-005 -2.4697800E-006  4.8967600E-005
 -9.7011100E-006 -7.2372300E-006  4.8205400E-005
 -5.5538300E-006 -1.0174400E-005  4.7219500E-005
 -2.2351800E-006 -1.1517400E-005  4.5999300E-005
  4.4816200E-007 -1.1784900E-005  4.4534900E-005
  2.4202400E-006 -1.0939800E-005  4.2816400E-005
  3.8592500E-006 -9.6731200E-006  4.0835000E-005
  4.7318800E-006 -7.7064600E-006  3.8582000E-005
  5.1736100E-006 -5.8342700E-006  3.6050100E-005
  5.2025400E-006 -3.6147900E-006  3.3231900E-005
  4.9266600E-006 -1.8517400E-006  3.0122100E-005
  4.3669500E-006 -1.9311800E-008  2.6715700E-005
  3.6823200E-006  1.1355100E-006  2.3009400E-005
  2.7765200E-006  2.1876900E-006  1.9001200E-005
  2.0141100E-006  2.4327000E-006  1.4690200E-005
  9.8912300E-007  2.4695200E-006  1.0079900E-005
  5.5183300E-007  1.6572900E-006  5.1729900E-006
 -2.6293700E-003  2.6409800E-002  7.6317400E-005
 -2.5933200E-003  2.5898400E-002  7.6301700E-005
 -2.5566400E-003  2.5387300E-002  7.6307400E-005
 -2.5201000E-003  2.4876200E-002  7.6341800E-005
 -2.4834900E-003  2.4365200E-002  7.6407800E-005
 -2.4467500E-003  2.3854500E-002  7.6504800E-005
 -2.4100800E-003  2.3343800E-002  7.6627500E-005
 -2.3732400E-003  2.2833500E-002  7.6769500E-005
 -2.3364800E-003  2.2323100E-002  7.6921000E-005
 -2.2995500E-003  2.1813200E-002  7.7072100E-005
 -2.2626500E-003  2.1303300E-002  7.7210600E-005
 -2.2255900E-003  2.0793900E-002  7.7324800E-005
 -2.1885000E-003  2.0284400E-002  7.7401900E-005
 -2.1512400E-003  1.9775500E-002  7.7429600E-005
 -2.1138700E-003  1.9266800E-002  7.7395700E-005
 -2.0763100E-003  1.8758700E-002  7.7289000E-005
 -2.0385700E-003  1.8251000E-002  7.7099100E-005
 -2.0006000E-003  1.7744100E-002  7.6816700E-005
 -1.9623800E-003  1.7237900E-002  7.6434000E-005
 -1.9238800E-003  1.6732700E-002  7.5944600E-005
 -1.8850900E-003  1.6228700E-002  7.5343800E-005
 -1.8459700E-003  1.5726200E-002  7.4628400E-005
 -1.8065400E-003  1.5225300E-002  7.3797300E-005
 -1.7667100E-003  1.4726500E-002  7.2850800E-005
 -1.7265800E-003  1.4229900E-002  7.1791100E-005
 -1.6860400E-003  1.3736100E-002  7.0621900E-005
 -1.6451800E-003  1.3245200E-002  6.9348600E-005
 -1.6039400E-003  1.2757900E-002  6.7978300E-005
 -1.5624000E-003  1.2274400E-002  6.6519100E-005
 -1.5205200E-003  1.1795200E-002  6.4980800E-005
 -1.4783600E-003  1.1320800E-002  6.3373800E-005
 -1.4359600E-003  1.0851700E-002  6.1710000E-005
 -1.3933100E-003  1.0388400E-002  6.0001800E-005
 -1.3505300E-003  9.9312500E-003  5.8262300E-005
 -1.3075800E-003  9.4808800E-003  5.6504900E-005
 -1.2645900E-003  9.0377500E-003  5.4743700E-005
 -1.2215500E-003  8.6023600E-003  5.2992500E-005
 -1.1785800E-003  8.1752000E-003  5.1265200E-005
 -1.1356900E-003  7.7567500E-003  4.9575600E-005
 -1.0929700E-003  7.3474700E-003  4.7936800E-005
 -1.0504800E-003  6.9478000E-003  4.6361900E-005
 -1.0082700E-003  6.5581800E-003  4.4862800E-005
 -9.6644700E-004  6.1790000E-003  4.3450800E-005
 -9.2500800E-004  5.8106300E-003  4.2136200E-005
 -8.8409200E-004  5.4534200E-003  4.0928400E-005
 -8.4368000E-004  5.1076900E-003  3.9835500E-005
 -8.0391300E-004  4.7736900E-003  3.8864300E-005
 -7.6477500E-004  4.4516900E-003  3.8020700E-005
 -7.2637500E-004  4.1418700E-003  3.7308700E-005
 -6.8873000E-004  3.8444100E-003  3.6731300E-005
 -6.5189600E-004  3.5594200E-003  3.6290000E-005
 -6.1593600E-004  3.2869900E-003  3.5985100E-005
 -5.8084100E-004  3.0271700E-003  3.5815100E-005
 -5.4672200E-004  2.7799600E-003  3.5777600E-005
 -5.1351800E-004  2.5453100E-003  3.5868600E-005
 -4.8136100E-004  2.3231700E-003  3.6083200E-005
 -4.5017200E-004  2.1134000E-003  3.6415000E-005
 -4.2006800E-004  1.9158700E-003  3.6856600E-005
 -3.9099100E-004  1.7303800E-003  3.7399900E-005
 -3.6300300E-004  1.5567300E-003  3.8035400E-005
 -3.3610400E-004  1.3946500E-003  3.8753300E-005
 -3.1027800E-004  1.2438700E-003  3.9542400E-005
 -2.8559100E-004  1.1040900E-003  4.0391500E-005
 -2.6195600E-004  9.7495900E-004  4.1288600E-005
 -2.3948700E-004  8.5613800E-004  4.2221200E-005
 -2.1805800E-004  7.4723400E-004  4.3176300E-005
 -1.9779000E-004  6.4787300E-004  4.4141000E-005
 -1.7856500E-004  5.5761400E-004  4.5101900E-005
 -1.6046300E-004  4.7606800E-004  4.6045300E-005
 -1.4342100E-004  4.0275600E-004  4.6957900E-005
 -1.2743800E-004  3.3727800E-004  4.7825900E-005
 -1.1253500E-004  2.7913700E-004  4.8635800E-005
 -9.8618200E-005  2.2791800E-004  4.9374000E-005
 -8.5785800E-005  1.8312200E-004  5.0027300E-005
 -7.3873600E-005  1.4432600E-004  5.0582300E-005
 -6.3019900E-005  1.1104700E-004  5.1026000E-005
 -5.3040900E-005  8.2851100E-005  5.1345700E-005
 -4.4054600E-005  5.9277600E-005  5.1528500E-005