# vtk DataFile Version 3.0
MMH: CalculiX output 'object.frd' file to 'vtk' format
ASCII
DATASET UNSTRUCTURED_GRID
POINTS 3232 double
 6.00000000E-001 2.10000000E-001 0.00000000E+000
 6.00000000E-001 2.08667000E-001 0.00000000E+000
 6.00000000E-001 2.07333000E-001 0.00000000E+000
 6.00000000E-001 2.06000000E-001 0.00000000E+000
 6.00000000E-001 2.04667000E-001 0.00000000E+000
 6.00000000E-001 2.03333000E-001 0.00000000E+000
 6.00000000E-001 2.02000000E-001 0.00000000E+000
 6.00000000E-001 2.00667000E-001 0.00000000E+000
 6.00000000E-001 1.99333000E-001 0.00000000E+000
 6.00000000E-001 1.98000000E-001 0.00000000E+000
 6.00000000E-001 1.96667000E-001 0.00000000E+000
 6.00000000E-001 1.95333000E-001 0.00000000E+000
 6.00000000E-001 1.94000000E-001 0.00000000E+000
 6.00000000E-001 1.92667000E-001 0.00000000E+000
 6.00000000E-001 1.91333000E-001 0.00000000E+000
 6.00000000E-001 1.90000000E-001 0.00000000E+000
 5.96490000E-001 1.90000000E-001 0.00000000E+000
 5.92980000E-001 1.90000000E-001 0.00000000E+000
 5.89470000E-001 1.90000000E-001 0.00000000E+000
 5.85960000E-001 1.90000000E-001 0.00000000E+000
 5.82449000E-001 1.90000000E-001 0.00000000E+000
 5.78939000E-001 1.90000000E-001 0.00000000E+000
 5.75429000E-001 1.90000000E-001 0.00000000E+000
 5.71919000E-001 1.90000000E-001 0.00000000E+000
 5.68409000E-001 1.90000000E-001 0.00000000E+000
 5.64899000E-001 1.90000000E-001 0.00000000E+000
 5.61389000E-001 1.90000000E-001 0.00000000E+000
 5.57879000E-001 1.90000000E-001 0.00000000E+000
 5.54369000E-001 1.90000000E-001 0.00000000E+000
 5.50859000E-001 1.90000000E-001 0.00000000E+000
 5.47348000E-001 1.90000000E-001 0.00000000E+000
 5.43838000E-001 1.90000000E-001 0.00000000E+000
 5.40328000E-001 1.90000000E-001 0.00000000E+000
 5.36818000E-001 1.90000000E-001 0.00000000E+000
 5.33308000E-001 1.90000000E-001 0.00000000E+000
 5.29798000E-001 1.90000000E-001 0.00000000E+000
 5.26288000E-001 1.90000000E-001 0.00000000E+000
 5.22778000E-001 1.90000000E-001 0.00000000E+000
 5.19268000E-001 1.90000000E-001 0.00000000E+000
 5.15758000E-001 1.90000000E-001 0.00000000E+000
 5.12247000E-001 1.90000000E-001 0.00000000E+000
 5.08737000E-001 1.90000000E-001 0.00000000E+000
 5.05227000E-001 1.90000000E-001 0.00000000E+000
 5.01717000E-001 1.90000000E-001 0.00000000E+000
 4.98207000E-001 1.90000000E-001 0.00000000E+000
 4.94697000E-001 1.90000000E-001 0.00000000E+000
 4.91187000E-001 1.90000000E-001 0.00000000E+000
 4.87677000E-001 1.90000000E-001 0.00000000E+000
 4.84167000E-001 1.90000000E-001 0.00000000E+000
 4.80657000E-001 1.90000000E-001 0.00000000E+000
 4.77146000E-001 1.90000000E-001 0.00000000E+000
 4.73636000E-001 1.90000000E-001 0.00000000E+000
 4.70126000E-001 1.90000000E-001 0.00000000E+000
 4.66616000E-001 1.90000000E-001 0.00000000E+000
 4.63106000E-001 1.90000000E-001 0.00000000E+000
 4.59596000E-001 1.90000000E-001 0.00000000E+000
 4.56086000E-001 1.90000000E-001 0.00000000E+000
 4.52576000E-001 1.90000000E-001 0.00000000E+000
 4.49066000E-001 1.90000000E-001 0.00000000E+000
 4.45556000E-001 1.90000000E-001 0.00000000E+000
 4.42045000E-001 1.90000000E-001 0.00000000E+000
 4.38535000E-001 1.90000000E-001 0.00000000E+000
 4.35025000E-001 1.90000000E-001 0.00000000E+000
 4.31515000E-001 1.90000000E-001 0.00000000E+000
 4.28005000E-001 1.90000000E-001 0.00000000E+000
 4.24495000E-001 1.90000000E-001 0.00000000E+000
 4.20985000E-001 1.90000000E-001 0.00000000E+000
 4.17475000E-001 1.90000000E-001 0.00000000E+000
 4.13965000E-001 1.90000000E-001 0.00000000E+000
 4.10455000E-001 1.90000000E-001 0.00000000E+000
 4.06944000E-001 1.90000000E-001 0.00000000E+000
 4.03434000E-001 1.90000000E-001 0.00000000E+000
 3.99924000E-001 1.90000000E-001 0.00000000E+000
 3.96414000E-001 1.90000000E-001 0.00000000E+000
 3.92904000E-001 1.90000000E-001 0.00000000E+000
 3.89394000E-001 1.90000000E-001 0.00000000E+000
 3.85884000E-001 1.90000000E-001 0.00000000E+000
 3.82374000E-001 1.90000000E-001 0.00000000E+000
 3.78864000E-001 1.90000000E-001 0.00000000E+000
 3.75353000E-001 1.90000000E-001 0.00000000E+000
 3.71843000E-001 1.90000000E-001 0.00000000E+000
 3.68333000E-001 1.90000000E-001 0.00000000E+000
 3.64823000E-001 1.90000000E-001 0.00000000E+000
 3.61313000E-001 1.90000000E-001 0.00000000E+000
 3.57803000E-001 1.90000000E-001 0.00000000E+000
 3.54293000E-001 1.90000000E-001 0.00000000E+000
 3.50783000E-001 1.90000000E-001 0.00000000E+000
 3.47273000E-001 1.90000000E-001 0.00000000E+000
 3.43763000E-001 1.90000000E-001 0.00000000E+000
 3.40252000E-001 1.90000000E-001 0.00000000E+000
 3.36742000E-001 1.90000000E-001 0.00000000E+000
 3.33232000E-001 1.90000000E-001 0.00000000E+000
 3.29722000E-001 1.90000000E-001 0.00000000E+000
 3.26212000E-001 1.90000000E-001 0.00000000E+000
 3.22702000E-001 1.90000000E-001 0.00000000E+000
 3.19192000E-001 1.90000000E-001 0.00000000E+000
 3.15682000E-001 1.90000000E-001 0.00000000E+000
 3.12172000E-001 1.90000000E-001 0.00000000E+000
 3.08661000E-001 1.90000000E-001 0.00000000E+000
 3.05151000E-001 1.90000000E-001 0.00000000E+000
 3.01641000E-001 1.90000000E-001 0.00000000E+000
 2.98131000E-001 1.90000000E-001 0.00000000E+000
 2.94621000E-001 1.90000000E-001 0.00000000E+000
 2.91111000E-001 1.90000000E-001 0.00000000E+000
 2.87601000E-001 1.90000000E-001 0.00000000E+000
 2.84091000E-001 1.90000000E-001 0.00000000E+000
 2.80581000E-001 1.90000000E-001 0.00000000E+000
 2.77071000E-001 1.90000000E-001 0.00000000E+000
 2.73560000E-001 1.90000000E-001 0.00000000E+000
 2.70050000E-001 1.90000000E-001 0.00000000E+000
 2.66540000E-001 1.90000000E-001 0.00000000E+000
 2.63030000E-001 1.90000000E-001 0.00000000E+000
 2.59520000E-001 1.90000000E-001 0.00000000E+000
 2.56010000E-001 1.90000000E-001 0.00000000E+000
 2.52500000E-001 1.90000000E-001 0.00000000E+000
 2.48990000E-001 1.90000000E-001 0.00000000E+000
 2.48990000E-001 1.91333000E-001 0.00000000E+000
 2.48990000E-001 1.92667000E-001 0.00000000E+000
 2.48990000E-001 1.94000000E-001 0.00000000E+000
 2.48990000E-001 1.95333000E-001 0.00000000E+000
 2.48990000E-001 1.96667000E-001 0.00000000E+000
 2.48990000E-001 1.98000000E-001 0.00000000E+000
 2.48990000E-001 1.99333000E-001 0.00000000E+000
 2.48990000E-001 2.00667000E-001 0.00000000E+000
 2.48990000E-001 2.02000000E-001 0.00000000E+000
 2.48990000E-001 2.03333000E-001 0.00000000E+000
 2.48990000E-001 2.04667000E-001 0.00000000E+000
 2.48990000E-001 2.06000000E-001 0.00000000E+000
 2.48990000E-001 2.07333000E-001 0.00000000E+000
 2.48990000E-001 2.08667000E-001 0.00000000E+000
 2.48990000E-001 2.10000000E-001 0.00000000E+000
 2.52500000E-001 2.10000000E-001 0.00000000E+000
 2.56010000E-001 2.10000000E-001 0.00000000E+000
 2.59520000E-001 2.10000000E-001 0.00000000E+000
 2.63030000E-001 2.10000000E-001 0.00000000E+000
 2.66540000E-001 2.10000000E-001 0.00000000E+000
 2.70050000E-001 2.10000000E-001 0.00000000E+000
 2.73560000E-001 2.10000000E-001 0.00000000E+000
 2.77071000E-001 2.10000000E-001 0.00000000E+000
 2.80581000E-001 2.10000000E-001 0.00000000E+000
 2.84091000E-001 2.10000000E-001 0.00000000E+000
 2.87601000E-001 2.10000000E-001 0.00000000E+000
 2.91111000E-001 2.10000000E-001 0.00000000E+000
 2.94621000E-001 2.10000000E-001 0.00000000E+000
 2.98131000E-001 2.10000000E-001 0.00000000E+000
 3.01641000E-001 2.10000000E-001 0.00000000E+000
 3.05151000E-001 2.10000000E-001 0.00000000E+000
 3.08661000E-001 2.10000000E-001 0.00000000E+000
 3.12172000E-001 2.10000000E-001 0.00000000E+000
 3.15682000E-001 2.10000000E-001 0.00000000E+000
 3.19192000E-001 2.10000000E-001 0.00000000E+000
 3.22702000E-001 2.10000000E-001 0.00000000E+000
 3.26212000E-001 2.10000000E-001 0.00000000E+000
 3.29722000E-001 2.10000000E-001 0.00000000E+000
 3.33232000E-001 2.10000000E-001 0.00000000E+000
 3.36742000E-001 2.10000000E-001 0.00000000E+000
 3.40252000E-001 2.10000000E-001 0.00000000E+000
 3.43763000E-001 2.10000000E-001 0.00000000E+000
 3.47273000E-001 2.10000000E-001 0.00000000E+000
 3.50783000E-001 2.10000000E-001 0.00000000E+000
 3.54293000E-001 2.10000000E-001 0.00000000E+000
 3.57803000E-001 2.10000000E-001 0.00000000E+000
 3.61313000E-001 2.10000000E-001 0.00000000E+000
 3.64823000E-001 2.10000000E-001 0.00000000E+000
 3.68333000E-001 2.10000000E-001 0.00000000E+000
 3.71843000E-001 2.10000000E-001 0.00000000E+000
 3.75353000E-001 2.10000000E-001 0.00000000E+000
 3.78864000E-001 2.10000000E-001 0.00000000E+000
 3.82374000E-001 2.10000000E-001 0.00000000E+000
 3.85884000E-001 2.10000000E-001 0.00000000E+000
 3.89394000E-001 2.10000000E-001 0.00000000E+000
 3.92904000E-001 2.10000000E-001 0.00000000E+000
 3.96414000E-001 2.10000000E-001 0.00000000E+000
 3.99924000E-001 2.10000000E-001 0.00000000E+000
 4.03434000E-001 2.10000000E-001 0.00000000E+000
 4.06944000E-001 2.10000000E-001 0.00000000E+000
 4.10455000E-001 2.10000000E-001 0.00000000E+000
 4.13965000E-001 2.10000000E-001 0.00000000E+000
 4.17475000E-001 2.10000000E-001 0.00000000E+000
 4.20985000E-001 2.10000000E-001 0.00000000E+000
 4.24495000E-001 2.10000000E-001 0.00000000E+000
 4.28005000E-001 2.10000000E-001 0.00000000E+000
 4.31515000E-001 2.10000000E-001 0.00000000E+000
 4.35025000E-001 2.10000000E-001 0.00000000E+000
 4.38535000E-001 2.10000000E-001 0.00000000E+000
 4.42045000E-001 2.10000000E-001 0.00000000E+000
 4.45556000E-001 2.10000000E-001 0.00000000E+000
 4.49066000E-001 2.10000000E-001 0.00000000E+000
 4.52576000E-001 2.10000000E-001 0.00000000E+000
 4.56086000E-001 2.10000000E-001 0.00000000E+000
 4.59596000E-001 2.10000000E-001 0.00000000E+000
 4.63106000E-001 2.10000000E-001 0.00000000E+000
 4.66616000E-001 2.10000000E-001 0.00000000E+000
 4.70126000E-001 2.10000000E-001 0.00000000E+000
 4.73636000E-001 2.10000000E-001 0.00000000E+000
 4.77146000E-001 2.10000000E-001 0.00000000E+000
 4.80657000E-001 2.10000000E-001 0.00000000E+000
 4.84167000E-001 2.10000000E-001 0.00000000E+000
 4.87677000E-001 2.10000000E-001 0.00000000E+000
 4.91187000E-001 2.10000000E-001 0.00000000E+000
 4.94697000E-001 2.10000000E-001 0.00000000E+000
[...]
POINT_DATA 3232
VECTORS DISP double
 -1.4696800E-004  1.1686600E-002  1.1151800E-004
 -1.4890300E-004  1.1684400E-002  1.1144800E-004
 -1.5475200E-004  1.1684700E-002  1.1123300E-004
 -1.5840600E-004  1.1684500E-002  1.1091400E-004
 -1.6301800E-004  1.1684600E-002  1.1052500E-004
 -1.6697800E-004  1.1684600E-002  1.1007700E-004
 -1.7118500E-004  1.1684700E-002  1.0959100E-004
 -1.7523800E-004  1.1684700E-002  1.0908200E-004
 -1.7933800E-004  1.1684800E-002  1.0857200E-004
 -1.8335000E-004  1.1684800E-002  1.0807900E-004
 -1.8741200E-004  1.1684800E-002  1.0762200E-004
 -1.9149000E-004  1.1684800E-002  1.0721900E-004
 -1.9542400E-004  1.1684800E-002  1.0688500E-004
 -1.9962700E-004  1.1684800E-002  1.0663600E-004
 -2.0335600E-004  1.1684800E-002  1.0647900E-004
 -2.0790900E-004  1.1684800E-002  1.0642200E-004
 -2.0815400E-004  1.1695300E-002  1.0640800E-004
 -2.0920000E-004  1.1705700E-002  1.0635200E-004
 -2.0974700E-004  1.1716300E-002  1.0623900E-004
 -2.1054500E-004  1.1726700E-002  1.0606400E-004
 -2.1102700E-004  1.1737100E-002  1.0581600E-004
 -2.1143700E-004  1.1747400E-002  1.0548700E-004
 -2.1145100E-004  1.1757500E-002  1.0507100E-004
 -2.1110200E-004  1.1767400E-002  1.0456500E-004
 -2.1019600E-004  1.1776800E-002  1.0397000E-004
 -2.0867600E-004  1.1785500E-002  1.0328800E-004
 -2.0643700E-004  1.1793200E-002  1.0252700E-004
 -2.0338300E-004  1.1799800E-002  1.0169300E-004
 -1.9947400E-004  1.1804700E-002  1.0079700E-004
 -1.9460500E-004  1.1807800E-002  9.9852600E-005
 -1.8878200E-004  1.1808600E-002  9.8871800E-005
 -1.8191400E-004  1.1806800E-002  9.7869500E-005
 -1.7403700E-004  1.1802000E-002  9.6860600E-005
 -1.6509000E-004  1.1793700E-002  9.5861000E-005
 -1.5512300E-004  1.1781600E-002  9.4885600E-005
 -1.4411700E-004  1.1765300E-002  9.3950300E-005
 -1.3212300E-004  1.1744600E-002  9.3068900E-005
 -1.1916800E-004  1.1718800E-002  9.2256200E-005
 -1.0529700E-004  1.1687900E-002  9.1524300E-005
 -9.0579400E-005  1.1651300E-002  9.0885300E-005
 -7.5053100E-005  1.1609000E-002  9.0349200E-005
 -5.8817300E-005  1.1560600E-002  8.9924900E-005
 -4.1911900E-005  1.1505800E-002  8.9619600E-005
 -2.4444600E-005  1.1444700E-002  8.9438300E-005
 -6.4679700E-006  1.1376800E-002  8.9385500E-005
  1.1919800E-005  1.1302200E-002  8.9462300E-005
  3.0644400E-005  1.1220700E-002  8.9669800E-005
  4.9632100E-005  1.1132400E-002  9.0006000E-005
  6.8784200E-005  1.1037200E-002  9.0468500E-005
  8.8055700E-005  1.0935100E-002  9.1052400E-005
  1.0733100E-004  1.0826100E-002  9.1752200E-005
  1.2658700E-004  1.0710500E-002  9.2560600E-005
  1.4570500E-004  1.0588200E-002  9.3469400E-005
  1.6467300E-004  1.0459400E-002  9.4469600E-005
  1.8338800E-004  1.0324400E-002  9.5550600E-005
  2.0183000E-004  1.0183100E-002  9.6702600E-005
  2.1993100E-004  1.0036100E-002  9.7913300E-005
  2.3764600E-004  9.8832100E-003  9.9172100E-005
  2.5495700E-004  9.7250000E-003  1.0046600E-004
  2.7179000E-004  9.5614900E-003  1.0178500E-004
  2.8817100E-004  9.3930700E-003  1.0311600E-004
  3.0400800E-004  9.2200100E-003  1.0444900E-004
  3.1935300E-004  9.0424400E-003  1.0577100E-004
  3.3411700E-004  8.8609100E-003  1.0707200E-004
  3.4835200E-004  8.6753200E-003  1.0834300E-004
  3.6200000E-004  8.4864100E-003  1.0957300E-004
  3.7508100E-004  8.2939400E-003  1.1075600E-004
  3.8759300E-004  8.0986900E-003  1.1188100E-004
  3.9950200E-004  7.9004800E-003  1.1294300E-004
  4.1087200E-004  7.6999100E-003  1.1393600E-004
  4.2161700E-004  7.4970500E-003  1.1485400E-004
  4.3184700E-004  7.2921500E-003  1.1569200E-004
  4.4144600E-004  7.0856400E-003  1.1644900E-004
  4.5054200E-004  6.8773900E-003  1.1712000E-004
  4.5901600E-004  6.6681400E-003  1.1770400E-004
  4.6698000E-004  6.4574800E-003  1.1820100E-004
  4.7434700E-004  6.2463300E-003  1.1860900E-004
  4.8117500E-004  6.0341900E-003  1.1892900E-004
  4.8743100E-004  5.8219100E-003  1.1916200E-004
  4.9311500E-004  5.6091400E-003  1.1931000E-004
  4.9823000E-004  5.3965100E-003  1.1937300E-004
  5.0274400E-004  5.1839400E-003  1.1935500E-004
  5.0666600E-004  4.9717300E-003  1.1925700E-004
  5.0996200E-004  4.7601300E-003  1.1908200E-004
  5.1260600E-004  4.5491600E-003  1.1883300E-004
  5.1460600E-004  4.3392900E-003  1.1851100E-004
  5.1586100E-004  4.1304400E-003  1.1812000E-004
  5.1645400E-004  3.9230700E-003  1.1766100E-004
  5.1618100E-004  3.7172700E-003  1.1713600E-004
  5.1521600E-004  3.5132300E-003  1.1654500E-004
  5.1325200E-004  3.3114600E-003  1.1589000E-004
  5.1054200E-004  3.1117200E-003  1.1516900E-004
  5.0669400E-004  2.9150200E-003  1.1438100E-004
  5.0201900E-004  2.7206500E-003  1.1352300E-004
  4.9606400E-004  2.5301600E-003  1.1259000E-004
  4.8917600E-004  2.3423900E-003  1.1157500E-004
  4.8086500E-004  2.1593700E-003  1.1047000E-004
  4.7148900E-004  1.9796000E-003  1.0926200E-004
  4.6054500E-004  1.8054500E-003  1.0793700E-004
  4.4839100E-004  1.6352300E-003  1.0647300E-004
  4.3451700E-004  1.4715800E-003  1.0484700E-004
  4.1927700E-004  1.3125900E-003  1.0302500E-004
  4.0217000E-004  1.1612800E-003  1.0097100E-004
  3.8351500E-004  1.0153700E-003  9.8632200E-005
  3.6288600E-004  8.7851200E-004  9.5951600E-005
  3.4045900E-004  7.4769100E-004  9.2847800E-005
  3.1606000E-004  6.2767200E-004  8.9233800E-005
  2.8945800E-004  5.1408700E-004  8.4983800E-005
  2.6113600E-004  4.1362200E-004  7.9963500E-005
  2.2986300E-004  3.1954900E-004  7.3976900E-005
  1.9764900E-004  2.4176800E-004  6.6817100E-005
  1.6098700E-004  1.6948600E-004  5.8166900E-005
  1.2550300E-004  1.1843000E-004  4.7713800E-005
  8.2775000E-005  6.9302000E-005  3.4920000E-005
  4.8728100E-005  5.0051300E-005  1.9422600E-005
  0.0000000E+000  0.0000000E+000  0.0000000E+000
  0.0000000E+000  0.0000000E+000  0.0000000E+000
  0.0000000E+000  0.0000000E+000  0.0000000E+000
  0.0000000E+000  0.0000000E+000  0.0000000E+000
  0.0000000E+000  0.0000000E+000  0.0000000E+000
  0.0000000E+000  0.0000000E+000  0.0000000E+000
  0.0000000E+000  0.0000000E+000  0.0000000E+000
  0.0000000E+000  0.0000000E+000  0.0000000E+000
  0.0000000E+000  0.0000000E+000  0.0000000E+000
  0.0000000E+000  0.0000000E+000  0.0000000E+000
  0.0000000E+000  0.0000000E+000  0.0000000E+000
  0.0000000E+000  0.0000000E+000  0.0000000E+000
  0.0000000E+000  0.0000000E+000  0.0000000E+000
  0.0000000E+000  0.0000000E+000  0.0000000E+000
  0.0000000E+000  0.0000000E+000  0.0000000E+000
  0.0000000E+000  0.0000000E+000  0.0000000E+000
 -4.8868900E-005  5.1071500E-005 -6.7215400E-006
 -8.1511100E-005  6.9343200E-005 -1.0011600E-005
 -1.2414200E-004  1.1793700E-004 -1.1065200E-005
 -1.5918800E-004  1.6776700E-004 -1.0211900E-005
 -1.9615800E-004  2.3915700E-004 -7.9806700E-006
 -2.2881300E-004  3.1527300E-004 -4.6686600E-006
 -2.6118400E-004  4.0831500E-004 -5.8275300E-007
 -2.9095900E-004  5.0678700E-004  4.0801500E-006
 -3.1964200E-004  6.1928500E-004  9.1360200E-006
 -3.4660100E-004  7.3717100E-004  1.4457800E-005
 -3.7216700E-004  8.6685300E-004  1.9932900E-005
 -3.9649300E-004  1.0016500E-003  2.5480400E-005
 -4.1935700E-004  1.1463200E-003  3.1031100E-005
 -4.4126600E-004  1.2957900E-003  3.6535500E-005
 -4.6176100E-004  1.4534200E-003  4.1951200E-005
 -4.8147000E-004  1.6155600E-003  4.7250100E-005
 -4.9987100E-004  1.7843300E-003  5.2406800E-005
 -5.1758400E-004  1.9572800E-003  5.7407400E-005
 -5.3412800E-004  2.1355900E-003  6.2237400E-005
 -5.5003400E-004  2.3176700E-003  6.6892500E-005
 -5.6492100E-004  2.5040700E-003  7.1365500E-005
 -5.7918700E-004  2.6937600E-003  7.5657900E-005
 -5.9258100E-004  2.8870000E-003  7.9768100E-005
 -6.0536400E-004  3.0829200E-003  8.3700500E-005
 -6.1739400E-004  3.2818500E-003  8.7457900E-005
 -6.2882400E-004  3.4828200E-003  9.1046000E-005
 -6.3958900E-004  3.6863600E-003  9.4470800E-005
 -6.4977500E-004  3.8913400E-003  9.7738700E-005
 -6.5934300E-004  4.0985000E-003  1.0085800E-004
 -6.6836300E-004  4.3065800E-003  1.0383400E-004
 -6.7677700E-004  4.5164000E-003  1.0667800E-004
 -6.8467400E-004  4.7267700E-003  1.0939500E-004
 -6.9195100E-004  4.9383600E-003  1.1199500E-004
 -6.9873100E-004  5.1502400E-003  1.1448400E-004
 -7.0486900E-004  5.3627700E-003  1.1687200E-004
 -7.1050300E-004  5.5753900E-003  1.1916700E-004
 -7.1547100E-004  5.7880500E-003  1.2137400E-004
 -7.1990100E-004  6.0006100E-003  1.2350100E-004
 -7.2364300E-004  6.2126500E-003  1.2555500E-004
 -7.2678600E-004  6.4243100E-003  1.2754200E-004
 -7.2922000E-004  6.6349600E-003  1.2946600E-004
 -7.3097500E-004  6.8448100E-003  1.3133300E-004
 -7.3199800E-004  7.0532700E-003  1.3314700E-004
 -7.3225500E-004  7.2604100E-003  1.3491200E-004
 -7.3174600E-004  7.4658000E-003  1.3662800E-004
 -7.3039400E-004  7.6692500E-003  1.3830000E-004
 -7.2822700E-004  7.8706200E-003  1.3992600E-004
 -7.2515700E-004  8.0694100E-003  1.4150700E-004
 -7.2121300E-004  8.2657000E-003  1.4304300E-004
 -7.1632800E-004  8.4588200E-003  1.4453100E-004
 -7.1050700E-004  8.6489300E-003  1.4596900E-004
 -7.0373000E-004  8.8353100E-003  1.4735200E-004
 -6.9596700E-004  9.0180800E-003  1.4867800E-004
 -6.8725100E-004  9.1966500E-003  1.4994000E-004
 -6.7752500E-004  9.3709300E-003  1.5113200E-004
 -6.6686600E-004  9.5405700E-003  1.5224900E-004
 -6.5520900E-004  9.7052300E-003  1.5328200E-004
 -6.4265400E-004  9.8648500E-003  1.5422500E-004
 -6.2915800E-004  1.0018800E-002  1.5506800E-004
 -6.1481600E-004  1.0167400E-002  1.5580500E-004
 -5.9963600E-004  1.0309700E-002  1.5642600E-004
 -5.8368700E-004  1.0446200E-002  1.5692400E-004
 -5.6703800E-004  1.0576100E-002  1.5728900E-004
 -5.4973200E-004  1.0699700E-002  1.5751500E-004
 -5.3189000E-004  1.0816500E-002  1.5759300E-004
 -5.1354500E-004  1.0926600E-002  1.5751800E-004
 -4.9484200E-004  1.1029800E-002  1.5728400E-004
 -4.7582900E-004  1.1126000E-002  1.5688500E-004
 -4.5664600E-004  1.1215300E-002  1.5632000E-004
 -4.3737700E-004  1.1297500E-002  1.5558600E-004
 -4.1812700E-004  1.1373000E-002  1.5468300E-004
 -3.9903400E-004  1.1441500E-002  1.5361200E-004
 -3.8015200E-004  1.1503300E-002  1.5237800E-004
 -3.6166300E-004  1.1558500E-002  1.5098500E-004
 -3.4357800E-004  1.1607400E-002  1.4944100E-004
 -3.2609900E-004  1.1650100E-002  1.4775600E-004
 -3.0920800E-004  1.1686700E-002  1.4594200E-004
 -2.9310000E-004  1.1718000E-002  1.4401300E-004
 -2.7774500E-004  1.1743700E-002  1.4198500E-004
 -2.6330400E-004  1.1764700E-002  1.3987500E-004
 -2.4974500E-004  1.1780700E-002  1.3770300E-004
 -2.3718500E-004  1.1792900E-002  1.3549000E-004
 -2.2558000E-004  1.1800900E-002  1.3325800E-004
 -2.1501600E-004  1.1805800E-002  1.3103000E-004
 -2.0541700E-004  1.1807200E-002  1.2882900E-004
 -1.9685400E-004  1.1806500E-002  1.2668000E-004
 -1.8920100E-004  1.1803000E-002  1.2460500E-004
 -1.8252900E-004  1.1798100E-002  1.2262700E-004
 -1.7665200E-004  1.1791100E-002  1.2076800E-004
 -1.7165800E-004  1.1783600E-002  1.1904600E-004
 -1.6728700E-004  1.1774200E-002  1.1748000E-004
 -1.6367900E-004  1.1765300E-002  1.1608300E-004
 -1.6045700E-004  1.1754700E-002  1.1486900E-004
 -1.5790700E-004  1.1745400E-002  1.1384300E-004
 -1.5540600E-004  1.1734200E-002  1.1301200E-004
 -1.5362100E-004  1.1725200E-002  1.1237100E-004
 -1.5131500E-004  1.1713500E-002  1.1192200E-004
 -1.5015200E-004  1.1705600E-002  1.1164400E-004
 -1.4714200E-004  1.1692800E-002  1.1152700E-004
 -1.5205700E-004  1.1695100E-002  1.1146200E-004
 -1.5341000E-004  1.1704300E-002  1.1158000E-004
 -1.5544500E-004  1.1715100E-002  1.1185700E-004
 -1.5730800E-004  1.1724500E-002  1.1230100E-004
 -1.5933900E-004  1.1735500E-002  1.1293100E-004
 -1.6168500E-004  1.1745200E-002  1.1374800E-004
 -1.6421400E-004  1.1756000E-002  1.1475600E-004
 -1.6726900E-004  1.1765500E-002  1.1594900E-004
 -1.7066300E-004  1.1775500E-002  1.1732000E-004
 -1.7472300E-004  1.1784100E-002  1.1885700E-004
 -1.7929700E-004  1.1792500E-002  1.2054600E-004
 -1.8464100E-004  1.1799100E-002  1.2237100E-004
 -1.9065400E-004  1.1804700E-002  1.2431100E-004
 -1.9750700E-004  1.1808000E-002  1.2634700E-004
 -2.0514300E-004  1.1809400E-002  1.2845600E-004
 -2.1365000E-004  1.1807700E-002  1.3061400E-004
 -2.2300000E-004  1.1803400E-002  1.3280000E-004
 -2.3321500E-004  1.1795300E-002  1.3499000E-004
 -2.4427100E-004  1.1783700E-002  1.3716200E-004
 -2.5615300E-004  1.1767500E-002  1.3929400E-004
 -2.6881200E-004  1.1747000E-002  1.4136500E-004
 -2.8222600E-004  1.1721300E-002  1.4335600E-004
 -2.9629900E-004  1.1690500E-002  1.4525100E-004
 -3.1101900E-004  1.1653800E-002  1.4703300E-004
 -3.2624800E-004  1.1611400E-002  1.4868900E-004
 -3.4197800E-004  1.1562700E-002  1.5020700E-004
 -3.5804800E-004  1.1507600E-002  1.5157800E-004
 -3.7443700E-004  1.1446000E-002  1.5279500E-004
 -3.9099700E-004  1.1377500E-002  1.5385100E-004
 -4.0766600E-004  1.1302300E-002  1.5474400E-004
 -4.2434300E-004  1.1220000E-002  1.5547100E-004
 -4.4091000E-004  1.1130900E-002  1.5603400E-004
 -4.5732700E-004  1.1034700E-002  1.5643300E-004
 -4.7342800E-004  1.0931500E-002  1.5667200E-004
 -4.8922100E-004  1.0821500E-002  1.5675600E-004
 -5.0452400E-004  1.0704700E-002  1.5668900E-004
 -5.1936600E-004  1.0581200E-002  1.5647900E-004
 -5.3358200E-004  1.0451100E-002  1.5613100E-004
 -5.4719200E-004  1.0314800E-002  1.5565400E-004
 -5.6008200E-004  1.0172200E-002  1.5505600E-004
 -5.7223700E-004  1.0023800E-002  1.5434500E-004
 -5.8361700E-004  9.8695900E-003  1.5352900E-004
 -5.9415900E-004  9.7100200E-003  1.5261500E-004
 -6.0389500E-004  9.5452000E-003  1.5161200E-004
 -6.1273200E-004  9.3755000E-003  1.5052700E-004
 -6.2074400E-004  9.2011600E-003  1.4936700E-004
 -6.2783900E-004  9.0224200E-003  1.4813800E-004
 -6.3410000E-004  8.8396600E-003  1.4684700E-004
 -6.3946400E-004  8.6530200E-003  1.4549700E-004
 -6.4399000E-004  8.4629600E-003  1.4409300E-004
 -6.4767300E-004  8.2695700E-003  1.4263900E-004
 -6.5052200E-004  8.0733100E-003  1.4113800E-004
 -6.5259900E-004  7.8742700E-003  1.3959000E-004
 -6.5385900E-004  7.6728700E-003  1.3799600E-004
 -6.5442000E-004  7.4692600E-003  1.3635800E-004
 -6.5420200E-004  7.2637300E-003  1.3467300E-004
 -6.5334400E-004  7.0565300E-003  1.3294100E-004
 -6.5176500E-004  6.8478400E-003  1.3115800E-004
 -6.4958700E-004  6.6380000E-003  1.2932200E-004
 -6.4676300E-004  6.4270700E-003  1.2742700E-004
 -6.4336000E-004  6.2154300E-003  1.2547100E-004
 -6.3939200E-004  6.0031400E-003  1.2344600E-004
 -6.3485200E-004  5.7905100E-003  1.2134800E-004
 -6.2981700E-004  5.5777100E-003  1.1917100E-004
 -6.2422000E-004  5.3648800E-003  1.1690600E-004
 -6.1816900E-004  5.1523600E-003  1.1454700E-004
 -6.1157600E-004  4.9401000E-003  1.1208700E-004
 -6.0453600E-004  4.7286500E-003  1.0951700E-004
 -5.9698200E-004  4.5177600E-003  1.0683100E-004
 -5.8895600E-004  4.3081700E-003  1.0401900E-004
 -5.8045100E-004  4.0994800E-003  1.0107400E-004
 -5.7142000E-004  3.8925600E-003  9.7988300E-005
 -5.6194000E-004  3.6869600E-003  9.4754300E-005
 -5.5187000E-004  3.4835900E-003  9.1364900E-005
 -5.4135500E-004  3.2820300E-003  8.7813400E-005
 -5.3019400E-004  3.0832000E-003  8.4093700E-005
 -5.1855600E-004  2.8867000E-003  8.0200900E-005
 -5.0623200E-004  2.6935100E-003  7.6131100E-005
 -4.9335700E-004  2.5032000E-003  7.1881500E-005
 -4.7977100E-004  2.3168900E-003  6.7451400E-005
 -4.6552400E-004  2.1339900E-003  6.2841900E-005
 -4.5055500E-004  1.9559700E-003  5.8057300E-005
 -4.3478200E-004  1.7818600E-003  5.3104400E-005
 -4.1828000E-004  1.6137100E-003  4.7994600E-005
 -4.0080600E-004  1.4499200E-003  4.2744000E-005
 -3.8260200E-004  1.2934000E-003  3.7374900E-005
 -3.6321500E-004  1.1416500E-003  3.1917100E-005
 -3.4313500E-004  9.9868400E-004  2.6409500E-005
 -3.2156700E-004  8.6088300E-004  2.0903100E-005
 -2.9944900E-004  7.3362600E-004  1.5462300E-005
 -2.7534100E-004  6.1185200E-004  1.0170100E-005
 -2.5107700E-004  5.0270000E-004  5.1308500E-006
 -2.2391100E-004  3.9917900E-004  4.7636400E-007
 -1.9752200E-004  3.1082100E-004 -3.6257300E-006
 -1.6649300E-004  2.2790200E-004 -6.9676100E-006
 -1.3830500E-004  1.6339900E-004 -9.2769800E-006
 -1.0216800E-004  1.0384600E-004 -1.0235200E-005
 -7.3611200E-005  6.6293800E-005 -9.3938800E-006
 -3.1373500E-005  3.3444200E-005 -6.3796000E-006
 -1.5523700E-004  1.1695100E-002  1.1126600E-004
 -1.5769700E-004  1.1704900E-002  1.1139500E-004
 -1.5913400E-004  1.1715100E-002  1.1166400E-004
 -1.6115200E-004  1.1725300E-002  1.1209400E-004
 -1.6315800E-004  1.1735500E-002  1.1269400E-004
 -1.6532000E-004  1.1746000E-002  1.1347200E-004
 -1.6788800E-004  1.1756200E-002  1.1442800E-004
 -1.7059700E-004  1.1766500E-002  1.1555900E-004
 -1.7389900E-004  1.1776000E-002  1.1685600E-004
 -1.7746400E-004  1.1785300E-002  1.1831100E-004
 -1.8172500E-004  1.1793300E-002  1.1990900E-004
 -1.8639700E-004  1.1800500E-002  1.2163500E-004
 -1.9182400E-004  1.1805800E-002  1.2346900E-004
 -1.9779100E-004  1.1809600E-002  1.2539400E-004
 -2.0453800E-004  1.1810900E-002  1.2738700E-004
 -2.1191500E-004  1.1809700E-002  1.2942800E-004
 -2.2006900E-004  1.1805300E-002  1.3149400E-004
 -2.2888700E-004  1.1797600E-002  1.3356500E-004
 -2.3845400E-004  1.1786000E-002  1.3561900E-004
 -2.4866100E-004  1.1770200E-002  1.3763600E-004
 -2.5956800E-004  1.1749700E-002  1.3959700E-004
 -2.7103600E-004  1.1724300E-002  1.4148400E-004
 -2.8312800E-004  1.1693500E-002  1.4328000E-004
 -2.9566400E-004  1.1657100E-002  1.4497200E-004
 -3.0871300E-004  1.1614800E-002  1.4654700E-004
 -3.2207100E-004  1.1566300E-002  1.4799300E-004
 -3.3579300E-004  1.1511300E-002  1.4930200E-004
 -3.4968700E-004  1.1449800E-002  1.5046600E-004
 -3.6376300E-004  1.1381500E-002  1.5148200E-004
 -3.7788200E-004  1.1306300E-002  1.5234500E-004
 -3.9198000E-004  1.1224100E-002  1.5305400E-004
 -4.0599700E-004  1.1135000E-002  1.5360800E-004
 -4.1979300E-004  1.1038900E-002  1.5401100E-004
 -4.3338400E-004  1.0935800E-002  1.5426400E-004
 -4.4658100E-004  1.0825800E-002  1.5437100E-004
 -4.5944200E-004  1.0709000E-002  1.5433700E-004
 -4.7177500E-004  1.0585500E-002  1.5416900E-004
 -4.8363600E-004  1.0455500E-002  1.5387200E-004
 -4.9488100E-004  1.0319100E-002  1.5345400E-004
 -5.0552400E-004  1.0176600E-002  1.5292100E-004
 -5.1550100E-004  1.0028100E-002  1.5228200E-004
 -5.2476300E-004  9.8738800E-003  1.5154200E-004
 -5.3333500E-004  9.7142300E-003  1.5071100E-004
 -5.4111300E-004  9.5493800E-003  1.4979400E-004
 -5.4818800E-004  9.3796100E-003  1.4879900E-004
 -5.5443400E-004  9.2051900E-003  1.4773100E-004
 -5.5996600E-004  9.0264000E-003  1.4659700E-004
 -5.6467800E-004  8.8435300E-003  1.4540100E-004
 -5.6866300E-004  8.6568600E-003  1.4414700E-004
 -5.7187700E-004  8.4666600E-003  1.4284100E-004
 -5.7435200E-004  8.2732300E-003  1.4148400E-004
 -5.7612700E-004  8.0768300E-003  1.4007800E-004
 -5.7716300E-004  7.8777400E-003  1.3862600E-004
 -5.7757300E-004  7.6762100E-003  1.3712700E-004
 -5.7726700E-004  7.4725200E-003  1.3558200E-004
 -5.7639400E-004  7.2668800E-003  1.3398900E-004
 -5.7485400E-004  7.0595800E-003  1.3234700E-004
 -5.7278500E-004  6.8508000E-003  1.3065400E-004
 -5.7012300E-004  6.6408200E-003  1.2890500E-004
 -5.6694500E-004  6.4298200E-003  1.2709700E-004
 -5.6326100E-004  6.2180500E-003  1.2522600E-004
 -5.5905800E-004  6.0056600E-003  1.2328600E-004
 -5.5443500E-004  5.7929300E-003  1.2127200E-004
 -5.4928900E-004  5.5799600E-003  1.1917800E-004
 -5.4378400E-004  5.3670800E-003  1.1699700E-004
 -5.3776600E-004  5.1543300E-003  1.1472300E-004
 -5.3141300E-004  4.9420800E-003  1.1234700E-004
 -5.2457700E-004  4.7303200E-003  1.0986400E-004
 -5.1739200E-004  4.5194900E-003  1.0726500E-004
 -5.0976600E-004  4.3095100E-003  1.0454300E-004
 -5.0174800E-004  4.1009200E-003  1.0168900E-004
 -4.9333200E-004  3.8935600E-003  9.8698400E-005
 -4.8447100E-004  3.6880700E-003  9.5561900E-005
 -4.7523100E-004  3.4842100E-003  9.2273400E-005
 -4.6550500E-004  3.2827600E-003  8.8826300E-005
 -4.5537900E-004  3.0833800E-003  8.5215000E-005
 -4.4475200E-004  2.8870100E-003  8.1434500E-005
 -4.3365300E-004  2.6931900E-003  7.7481000E-005