# vtk DataFile Version 3.0
MMH: CalculiX output 'object.frd' file to 'vtk' format
ASCII
DATASET UNSTRUCTURED_GRID
POINTS 3232 double
 6.00000000E-001 2.10000000E-001 0.00000000E+000
 6.00000000E-001 2.08667000E-001 0.00000000E+000
 6.00000000E-001 2.07333000E-001 0.00000000E+000
 6.00000000E-001 2.06000000E-001 0.00000000E+000
 6.00000000E-001 2.04667000E-001 0.00000000E+000
 6.00000000E-001 2.03333000E-001 0.00000000E+000
 6.00000000E-001 2.02000000E-001 0.00000000E+000
 6.00000000E-001 2.00667000E-001 0.00000000E+000
 6.00000000E-001 1.99333000E-001 0.00000000E+000
 6.00000000E-001 1.98000000E-001 0.00000000E+000
 6.00000000E-001 1.96667000E-001 0.00000000E+000
 6.00000000E-001 1.95333000E-001 0.00000000E+000
 6.00000000E-001 1.94000000E-001 0.00000000E+000
 6.00000000E-001 1.92667000E-001 0.00000000E+000
 6.00000000E-001 1.91333000E-001 0.00000000E+000
 6.00000000E-001 1.90000000E-001 0.00000000E+000
 5.96490000E-001 1.90000000E-001 0.00000000E+000
 5.92980000E-001 1.90000000E-001 0.00000000E+000
 5.89470000E-001 1.90000000E-001 0.00000000E+000
 5.85960000E-001 1.90000000E-001 0.00000000E+000
 5.82449000E-001 1.90000000E-001 0.00000000E+000
 5.78939000E-001 1.90000000E-001 0.00000000E+000
 5.75429000E-001 1.90000000E-001 0.00000000E+000
 5.71919000E-001 1.90000000E-001 0.00000000E+000
 5.68409000E-001 1.90000000E-001 0.00000000E+000
 5.64899000E-001 1.90000000E-001 0.00000000E+000
 5.61389000E-001 1.90000000E-001 0.00000000E+000
 5.57879000E-001 1.90000000E-001 0.00000000E+000
 5.54369000E-001 1.90000000E-001 0.00000000E+000
 5.50859000E-001 1.90000000E-001 0.00000000E+000
 5.47348000E-001 1.90000000E-001 0.00000000E+000
 5.43838000E-001 1.90000000E-001 0.00000000E+000
 5.40328000E-001 1.90000000E-001 0.00000000E+000
 5.36818000E-001 1.90000000E-001 0.00000000E+000
 5.33308000E-001 1.90000000E-001 0.00000000E+000
 5.29798000E-001 1.90000000E-001 0.00000000E+000
 5.26288000E-001 1.90000000E-001 0.00000000E+000
 5.22778000E-001 1.90000000E-001 0.00000000E+000
 5.19268000E-001 1.90000000E-001 0.00000000E+000
 5.15758000E-001 1.90000000E-001 0.00000000E+000
 5.12247000E-001 1.90000000E-001 0.00000000E+000
 5.08737000E-001 1.90000000E-001 0.00000000E+000
 5.05227000E-001 1.90000000E-001 0.00000000E+000
 5.01717000E-001 1.90000000E-001 0.00000000E+000
 4.98207000E-001 1.90000000E-001 0.00000000E+000
 4.94697000E-001 1.90000000E-001 0.00000000E+000
 4.91187000E-001 1.90000000E-001 0.00000000E+000
 4.87677000E-001 1.90000000E-001 0.00000000E+000
 4.84167000E-001 1.90000000E-001 0.00000000E+000
 4.80657000E-001 1.90000000E-001 0.00000000E+000
 4.77146000E-001 1.90000000E-001 0.00000000E+000
 4.73636000E-001 1.90000000E-001 0.00000000E+000
 4.70126000E-001 1.90000000E-001 0.00000000E+000
 4.66616000E-001 1.90000000E-001 0.00000000E+000
 4.63106000E-001 1.90000000E-001 0.00000000E+000
 4.59596000E-001 1.90000000E-001 0.00000000E+000
 4.56086000E-001 1.90000000E-001 0.00000000E+000
 4.52576000E-001 1.90000000E-001 0.00000000E+000
 4.49066000E-001 1.90000000E-001 0.00000000E+000
 4.45556000E-001 1.90000000E-001 0.00000000E+000
 4.42045000E-001 1.90000000E-001 0.00000000E+000
 4.38535000E-001 1.90000000E-001 0.00000000E+000
 4.35025000E-001 1.90000000E-001 0.00000000E+000
 4.31515000E-001 1.90000000E-001 0.00000000E+000
 4.28005000E-001 1.90000000E-001 0.00000000E+000
 4.24495000E-001 1.90000000E-001 0.00000000E+000
 4.20985000E-001 1.90000000E-001 0.00000000E+000
 4.17475000E-001 1.90000000E-001 0.00000000E+000
 4.13965000E-001 1.90000000E-001 0.00000000E+000
 4.10455000E-001 1.90000000E-001 0.00000000E+000
 4.06944000E-001 1.90000000E-001 0.00000000E+000
 4.03434000E-001 1.90000000E-001 0.00000000E+000
 3.99924000E-001 1.90000000E-001 0.00000000E+000
 3.96414000E-001 1.90000000E-001 0.00000000E+000
 3.92904000E-001 1.90000000E-001 0.00000000E+000
 3.89394000E-001 1.90000000E-001 0.00000000E+000
 3.85884000E-001 1.90000000E-001 0.00000000E+000
 3.82374000E-001 1.90000000E-001 0.00000000E+000
 3.78864000E-001 1.90000000E-001 0.00000000E+000
 3.75353000E-001 1.90000000E-001 0.00000000E+000
 3.71843000E-001 1.90000000E-001 0.00000000E+000
 3.68333000E-001 1.90000000E-001 0.00000000E+000
 3.64823000E-001 1.90000000E-001 0.00000000E+000
 3.61313000E-001 1.90000000E-001 0.00000000E+000
 3.57803000E-001 1.90000000E-001 0.00000000E+000
 3.54293000E-001 1.90000000E-001 0.00000000E+000
 3.50783000E-001 1.90000000E-001 0.00000000E+000
 3.47273000E-001 1.90000000E-001 0.00000000E+000
 3.43763000E-001 1.90000000E-001 0.00000000E+000
 3.40252000E-001 1.90000000E-001 0.00000000E+000
 3.36742000E-001 1.90000000E-001 0.00000000E+000
 3.33232000E-001 1.90000000E-001 0.00000000E+000
 3.29722000E-001 1.90000000E-001 0.00000000E+000
 3.26212000E-001 1.90000000E-001 0.00000000E+000
 3.22702000E-001 1.90000000E-001 0.00000000E+000
 3.19192000E-001 1.90000000E-001 0.00000000E+000
 3.15682000E-001 1.90000000E-001 0.00000000E+000
 3.12172000E-001 1.90000000E-001 0.00000000E+000
 3.08661000E-001 1.90000000E-001 0.00000000E+000
 3.05151000E-001 1.90000000E-001 0.00000000E+000
 3.01641000E-001 1.90000000E-001 0.00000000E+000
 2.98131000E-001 1.90000000E-001 0.00000000E+000
 2.94621000E-001 1.90000000E-001 0.00000000E+000
 2.91111000E-001 1.90000000E-001 0.00000000E+000
 2.87601000E-001 1.90000000E-001 0.00000000E+000
 2.84091000E-001 1.90000000E-001 0.00000000E+000
 2.80581000E-001 1.90000000E-001 0.00000000E+000
 2.77071000E-001 1.90000000E-001 0.00000000E+000
 2.73560000E-001 1.90000000E-001 0.00000000E+000
 2.70050000E-001 1.90000000E-001 0.00000000E+000
 2.66540000E-001 1.90000000E-001 0.00000000E+000
 2.63030000E-001 1.90000000E-001 0.00000000E+000
 2.59520000E-001 1.90000000E-001 0.00000000E+000
 2.56010000E-001 1.90000000E-001 0.00000000E+000
 2.52500000E-001 1.90000000E-001 0.00000000E+000
 2.48990000E-001 1.90000000E-001 0.00000000E+000
 2.48990000E-001 1.91333000E-001 0.00000000E+000
 2.48990000E-001 1.92667000E-001 0.00000000E+000
 2.48990000E-001 1.94000000E-001 0.00000000E+000
 2.48990000E-001 1.95333000E-001 0.00000000E+000
 2.48990000E-001 1.96667000E-001 0.00000000E+000
 2.48990000E-001 1.98000000E-001 0.00000000E+000
 2.48990000E-001 1.99333000E-001 0.00000000E+000
 2.48990000E-001 2.00667000E-001 0.00000000E+000
 2.48990000E-001 2.02000000E-001 0.00000000E+000
 2.48990000E-001 2.03333000E-001 0.00000000E+000
 2.48990000E-001 2.04667000E-001 0.00000000E+000
 2.48990000E-001 2.06000000E-001 0.00000000E+000
 2.48990000E-001 2.07333000E-001 0.00000000E+000
 2.48990000E-001 2.08667000E-001 0.00000000E+000
 2.48990000E-001 2.10000000E-001 0.00000000E+000
 2.52500000E-001 2.10000000E-001 0.00000000E+000
 2.56010000E-001 2.10000000E-001 0.00000000E+000
 2.59520000E-001 2.10000000E-001 0.00000000E+000
 2.63030000E-001 2.10000000E-001 0.00000000E+000
 2.66540000E-001 2.10000000E-001 0.00000000E+000
 2.70050000E-001 2.10000000E-001 0.00000000E+000
 2.73560000E-001 2.10000000E-001 0.00000000E+000
 2.77071000E-001 2.10000000E-001 0.00000000E+000
 2.80581000E-001 2.10000000E-001 0.00000000E+000
 2.84091000E-001 2.10000000E-001 0.00000000E+000
 2.87601000E-001 2.10000000E-001 0.00000000E+000
 2.91111000E-001 2.10000000E-001 0.00000000E+000
 2.94621000E-001 2.10000000E-001 0.00000000E+000
 2.98131000E-001 2.10000000E-001 0.00000000E+000
 3.01641000E-001 2.10000000E-001 0.00000000E+000
 3.05151000E-001 2.10000000E-001 0.00000000E+000
 3.08661000E-001 2.10000000E-001 0.00000000E+000
 3.12172000E-001 2.10000000E-001 0.00000000E+000
 3.15682000E-001 2.10000000E-001 0.00000000E+000
 3.19192000E-001 2.10000000E-001 0.00000000E+000
 3.22702000E-001 2.10000000E-001 0.00000000E+000
 3.26212000E-001 2.10000000E-001 0.00000000E+000
 3.29722000E-001 2.10000000E-001 0.00000000E+000
 3.33232000E-001 2.10000000E-001 0.00000000E+000
 3.36742000E-001 2.10000000E-001 0.00000000E+000
 3.40252000E-001 2.10000000E-001 0.00000000E+000
 3.43763000E-001 2.10000000E-001 0.00000000E+000
 3.47273000E-001 2.10000000E-001 0.00000000E+000
 3.50783000E-001 2.10000000E-001 0.00000000E+000
 3.54293000E-001 2.10000000E-001 0.00000000E+000
 3.57803000E-001 2.10000000E-001 0.00000000E+000
 3.61313000E-001 2.10000000E-001 0.00000000E+000
 3.64823000E-001 2.10000000E-001 0.00000000E+000
 3.68333000E-001 2.10000000E-001 0.00000000E+000
 3.71843000E-001 2.10000000E-001 0.00000000E+000
 3.75353000E-001 2.10000000E-001 0.00000000E+000
 3.78864000E-001 2.10000000E-001 0.00000000E+000
 3.82374000E-001 2.10000000E-001 0.00000000E+000
 3.85884000E-001 2.10000000E-001 0.00000000E+000
 3.89394000E-001 2.10000000E-001 0.00000000E+000
 3.92904000E-001 2.10000000E-001 0.00000000E+000
 3.96414000E-001 2.10000000E-001 0.00000000E+000
 3.99924000E-001 2.10000000E-001 0.00000000E+000
 4.03434000E-001 2.10000000E-001 0.00000000E+000
 4.06944000E-001 2.10000000E-001 0.00000000E+000
 4.10455000E-001 2.10000000E-001 0.00000000E+000
 4.13965000E-001 2.10000000E-001 0.00000000E+000
 4.17475000E-001 2.10000000E-001 0.00000000E+000
 4.20985000E-001 2.10000000E-001 0.00000000E+000
 4.24495000E-001 2.10000000E-001 0.00000000E+000
 4.28005000E-001 2.10000000E-001 0.00000000E+000
 4.31515000E-001 2.10000000E-001 0.00000000E+000
 4.35025000E-001 2.10000000E-001 0.00000000E+000
 4.38535000E-001 2.10000000E-001 0.00000000E+000
 4.42045000E-001 2.10000000E-001 0.00000000E+000
 4.45556000E-001 2.10000000E-001 0.00000000E+000
 4.49066000E-001 2.10000000E-001 0.00000000E+000
 4.52576000E-001 2.10000000E-001 0.00000000E+000
 4.56086000E-001 2.10000000E-001 0.00000000E+000
 4.59596000E-001 2.10000000E-001 0.00000000E+000
 4.63106000E-001 2.10000000E-001 0.00000000E+000
 4.66616000E-001 2.10000000E-001 0.00000000E+000
 4.70126000E-001 2.10000000E-001 0.00000000E+000
 4.73636000E-001 2.10000000E-001 0.00000000E+000
 4.77146000E-001 2.10000000E-001 0.00000000E+000
 4.80657000E-001 2.10000000E-001 0.00000000E+000
 4.84167000E-001 2.10000000E-001 0.00000000E+000
 4.87677000E-001 2.10000000E-001 0.00000000E+000
 4.91187000E-001 2.10000000E-001 0.00000000E+000
 4.94697000E-001 2.10000000E-001 0.00000000E+000
[...]
POINT_DATA 3232
VECTORS DISP double
 -2.0828300E-003 -3.3030100E-002 -2.4528100E-006
 -2.4376000E-003 -3.2982300E-002 -2.5512100E-006
 -2.7933700E-003 -3.2933700E-002 -2.8456700E-006
 -3.1485100E-003 -3.2885500E-002 -3.3139000E-006
 -3.5038900E-003 -3.2837100E-002 -3.9263400E-006
 -3.8590900E-003 -3.2788800E-002 -4.6567800E-006
 -4.2143500E-003 -3.2740500E-002 -5.4719800E-006
 -4.5695000E-003 -3.2692300E-002 -6.3374100E-006
 -4.9247200E-003 -3.2644000E-002 -7.2163500E-006
 -5.2798700E-003 -3.2595800E-002 -8.0719700E-006
 -5.6350300E-003 -3.2547600E-002 -8.8677200E-006
 -5.9901600E-003 -3.2499400E-002 -9.5702200E-006
 -6.3453200E-003 -3.2451300E-002 -1.0148900E-005
 -6.7003800E-003 -3.2403100E-002 -1.0577900E-005
 -7.0555200E-003 -3.2355000E-002 -1.0838300E-005
 -7.4106000E-003 -3.2307100E-002 -1.0924600E-005
 -7.2836500E-003 -3.1371600E-002 -1.1012600E-005
 -7.1566000E-003 -3.0436800E-002 -1.1264800E-005
 -7.0292600E-003 -2.9501500E-002 -1.1682900E-005
 -6.9016600E-003 -2.8566600E-002 -1.2278500E-005
 -6.7737100E-003 -2.7631600E-002 -1.3059700E-005
 -6.6453900E-003 -2.6697100E-002 -1.4038200E-005
 -6.5166000E-003 -2.5762900E-002 -1.5223900E-005
 -6.3873000E-003 -2.4829500E-002 -1.6627400E-005
 -6.2574300E-003 -2.3897000E-002 -1.8257200E-005
 -6.1269400E-003 -2.2965800E-002 -2.0121700E-005
 -5.9957800E-003 -2.2036100E-002 -2.2226200E-005
 -5.8639100E-003 -2.1108500E-002 -2.4576100E-005
 -5.7313300E-003 -2.0183300E-002 -2.7173000E-005
 -5.5980200E-003 -1.9261200E-002 -3.0018000E-005
 -5.4639700E-003 -1.8342600E-002 -3.3109100E-005
 -5.3292200E-003 -1.7428200E-002 -3.6442500E-005
 -5.1937600E-003 -1.6518500E-002 -4.0011900E-005
 -5.0576900E-003 -1.5614400E-002 -4.3808600E-005
 -4.9210000E-003 -1.4716500E-002 -4.7822000E-005
 -4.7838400E-003 -1.3825800E-002 -5.2038400E-005
 -4.6462100E-003 -1.2942800E-002 -5.6442800E-005
 -4.5083000E-003 -1.2068700E-002 -6.1016800E-005
 -4.3701200E-003 -1.1204100E-002 -6.5741200E-005
 -4.2319000E-003 -1.0350300E-002 -7.0593500E-005
 -4.0936700E-003 -9.5078300E-003 -7.5550100E-005
 -3.9556600E-003 -8.6779400E-003 -8.0585900E-005
 -3.8179600E-003 -7.8615400E-003 -8.5673500E-005
 -3.6807600E-003 -7.0595400E-003 -9.0785100E-005
 -3.5442100E-003 -6.2730800E-003 -9.5890800E-005
 -3.4084700E-003 -5.5029500E-003 -1.0096100E-004
 -3.2737100E-003 -4.7503400E-003 -1.0596500E-004
 -3.1400800E-003 -4.0160200E-003 -1.1087100E-004
 -3.0077700E-003 -3.3010900E-003 -1.1564900E-004
 -2.8768900E-003 -2.6063500E-003 -1.2026800E-004
 -2.7476500E-003 -1.9327700E-003 -1.2469700E-004
 -2.6201400E-003 -1.2811600E-003 -1.2890800E-004
 -2.4945400E-003 -6.5230300E-004 -1.3287200E-004
 -2.3709500E-003 -4.7053700E-005 -1.3656200E-004
 -2.2494900E-003  5.3402000E-004 -1.3995300E-004
 -2.1302700E-003  1.0900800E-003 -1.4302100E-004
 -2.0133700E-003  1.6207400E-003 -1.4574700E-004
 -1.8988900E-003  2.1252500E-003 -1.4810900E-004
 -1.7868700E-003  2.6033200E-003 -1.5009200E-004
 -1.6773900E-003  3.0544100E-003 -1.5168200E-004
 -1.5704700E-003  3.4782800E-003 -1.5286600E-004
 -1.4661600E-003  3.8746300E-003 -1.5363600E-004
 -1.3644600E-003  4.2432300E-003 -1.5398500E-004
 -1.2653900E-003  4.5840700E-003 -1.5391000E-004
 -1.1689500E-003  4.8969400E-003 -1.5340800E-004
 -1.0751100E-003  5.1820500E-003 -1.5248200E-004
 -9.8388600E-004  5.4393100E-003 -1.5113400E-004
 -8.9521500E-004  5.6690600E-003 -1.4937000E-004
 -8.0912400E-004  5.8714000E-003 -1.4719700E-004
 -7.2551900E-004  6.0467100E-003 -1.4462500E-004
 -6.4444100E-004  6.1953600E-003 -1.4166600E-004
 -5.6578700E-004  6.3177100E-003 -1.3833100E-004
 -4.8960300E-004  6.4144200E-003 -1.3463700E-004
 -4.1579000E-004  6.4858000E-003 -1.3059700E-004
 -3.4439600E-004  6.5328000E-003 -1.2623000E-004
 -2.7534400E-004  6.5557000E-003 -1.2155200E-004
 -2.0867400E-004  6.5556600E-003 -1.1658200E-004
 -1.4434700E-004  6.5330200E-003 -1.1134000E-004
 -8.2393500E-005  6.4890300E-003 -1.0584400E-004
 -2.2807200E-005  6.4241900E-003 -1.0011500E-004
  3.4371300E-005  6.3397400E-003 -9.4173200E-005
  8.9133500E-005  6.2363900E-003 -8.8039300E-005
  1.4140700E-004  6.1153200E-003 -8.1733500E-005
  1.9119200E-004  5.9774600E-003 -7.5277300E-005
  2.3835700E-004  5.8239200E-003 -6.8690300E-005
  2.8294400E-004  5.6558200E-003 -6.1994400E-005
  3.2473000E-004  5.4742900E-003 -5.5208800E-005
  3.6383100E-004  5.2804300E-003 -4.8355500E-005
  3.9991100E-004  5.0756000E-003 -4.1453600E-005
  4.3318100E-004  4.8606700E-003 -3.4525000E-005
  4.6318600E-004  4.6374400E-003 -2.7589100E-005
  4.9023500E-004  4.4063500E-003 -2.0667900E-005
  5.1376700E-004  4.1697400E-003 -1.3782500E-005
  5.3418200E-004  3.9275500E-003 -6.9553800E-006
  5.5083400E-004  3.6826900E-003 -2.1006400E-007
  5.6419600E-004  3.4345900E-003  6.4288500E-006
  5.7357100E-004  3.1866900E-003  1.2933700E-005
  5.7948200E-004  2.9379700E-003  1.9275200E-005
  5.8120900E-004  2.6923000E-003  2.5419800E-005
  5.7931400E-004  2.4482900E-003  3.1328700E-005
  5.7307800E-004  2.2101800E-003  3.6959200E-005
  5.6308600E-004  1.9761700E-003  4.2257000E-005
  5.4865900E-004  1.7510100E-003  4.7164000E-005
  5.3034800E-004  1.5322400E-003  5.1601700E-005
  5.0762500E-004  1.3254500E-003  5.5486500E-005
  4.8085000E-004  1.1270400E-003  5.8702100E-005
  4.4990000E-004  9.4409000E-004  6.1124600E-005
  4.1457300E-004  7.7098200E-004  6.2577700E-005
  3.7571400E-004  6.1737400E-004  6.2874000E-005
  3.3173300E-004  4.7424400E-004  6.1739800E-005
  2.8564300E-004  3.5563200E-004  5.8887000E-005
  2.3268700E-004  2.4669800E-004  5.3871400E-005
  1.8092500E-004  1.6961900E-004  4.6254500E-005
  1.1885200E-004  9.7441900E-005  3.5276900E-005
  6.8947700E-005  6.9705100E-005  2.0427300E-005
  0.0000000E+000  0.0000000E+000  0.0000000E+000
  0.0000000E+000  0.0000000E+000  0.0000000E+000
  0.0000000E+000  0.0000000E+000  0.0000000E+000
  0.0000000E+000  0.0000000E+000  0.0000000E+000
  0.0000000E+000  0.0000000E+000  0.0000000E+000
  0.0000000E+000  0.0000000E+000  0.0000000E+000
  0.0000000E+000  0.0000000E+000  0.0000000E+000
  0.0000000E+000  0.0000000E+000  0.0000000E+000
  0.0000000E+000  0.0000000E+000  0.0000000E+000
  0.0000000E+000  0.0000000E+000  0.0000000E+000
  0.0000000E+000  0.0000000E+000  0.0000000E+000
  0.0000000E+000  0.0000000E+000  0.0000000E+000
  0.0000000E+000  0.0000000E+000  0.0000000E+000
  0.0000000E+000  0.0000000E+000  0.0000000E+000
  0.0000000E+000  0.0000000E+000  0.0000000E+000
  0.0000000E+000  0.0000000E+000  0.0000000E+000
 -7.4680300E-005  7.5531700E-005 -1.8444300E-005
 -1.2559100E-004  1.0138200E-004 -3.1388000E-005
 -1.9235000E-004  1.7287300E-004 -4.0562700E-005
 -2.4814400E-004  2.4674700E-004 -4.6426700E-005
 -3.0706500E-004  3.5356000E-004 -4.9749600E-005
 -3.5962400E-004  4.6815600E-004 -5.0966900E-005
 -4.1160600E-004  6.0859900E-004 -5.0534800E-005
 -4.5944500E-004  7.5778700E-004 -4.8750700E-005
 -5.0516200E-004  9.2802900E-004 -4.5898300E-005
 -5.4766500E-004  1.1065700E-003 -4.2177300E-005
 -5.8727600E-004  1.3022000E-003 -3.7771300E-005
 -6.2400300E-004  1.5050100E-003 -3.2815400E-005
 -6.5740700E-004  1.7212700E-003 -2.7432100E-005
 -6.8796100E-004  1.9432400E-003 -2.1713200E-005
 -7.1492100E-004  2.1752100E-003 -1.5742500E-005
 -7.3891100E-004  2.4111500E-003 -9.5829300E-006
 -7.5911300E-004  2.6537600E-003 -3.2935100E-006
 -7.7614900E-004  2.8984100E-003  3.0820600E-006
 -7.8925200E-004  3.1465200E-003  9.5008900E-006
 -7.9895900E-004  3.3945300E-003  1.5932300E-005
 -8.0462700E-004  3.6429500E-003  2.2344100E-005
 -8.0666800E-004  3.8889300E-003  2.8713900E-005
 -8.0459900E-004  4.1324600E-003  3.5017400E-005
 -7.9870800E-004  4.3710200E-003  4.1237100E-005
 -7.8866400E-004  4.6044400E-003  4.7354500E-005
 -7.7466400E-004  4.8302500E-003  5.3355100E-005
 -7.5650200E-004  5.0483500E-003  5.9224400E-005
 -7.3433200E-004  5.2561900E-003  6.4949900E-005
 -7.0803600E-004  5.4537600E-003  7.0520500E-005
 -6.7777500E-004  5.6385400E-003  7.5924100E-005
 -6.4347600E-004  5.8105200E-003  8.1152200E-005
 -6.0535900E-004  5.9673300E-003  8.6193500E-005
 -5.6337000E-004  6.1087800E-003  9.1040300E-005
 -5.1780200E-004  6.2328800E-003  9.5683100E-005
 -4.6862800E-004  6.3391200E-003  1.0011400E-004
 -4.1620300E-004  6.4260000E-003  1.0432400E-004
 -3.6055300E-004  6.4926200E-003  1.0830600E-004
 -3.0206500E-004  6.5380500E-003  1.1205300E-004
 -2.4085200E-004  6.5610100E-003  1.1555500E-004
 -1.7729700E-004  6.5610500E-003  1.1880600E-004
 -1.1163400E-004  6.5367400E-003  1.2179900E-004
 -4.4213400E-005  6.4878300E-003  1.2452600E-004
  2.4606900E-005  6.4130800E-003  1.2698000E-004
  9.4499100E-005  6.3121600E-003  1.2915500E-004
  1.6501800E-004  6.1842500E-003  1.3104500E-004
  2.3582400E-004  6.0288000E-003  1.3264200E-004
  3.0643900E-004  5.8455600E-003  1.3394200E-004
  3.7647400E-004  5.6336700E-003  1.3493900E-004
  4.4547500E-004  5.3934500E-003  1.3562900E-004
  5.1297100E-004  5.1238900E-003  1.3600700E-004
  5.7857600E-004  4.8256700E-003  1.3607200E-004
  6.4174100E-004  4.4978700E-003  1.3582100E-004
  7.0214700E-004  4.1412700E-003  1.3525300E-004
  7.5921600E-004  3.7553500E-003  1.3437000E-004
  8.1266200E-004  3.3407000E-003  1.3317200E-004
  8.6194900E-004  2.8974300E-003  1.3166400E-004
  9.0678000E-004  2.4258000E-003  1.2985000E-004
  9.4673200E-004  1.9265600E-003  1.2773800E-004
  9.8146800E-004  1.3997200E-003  1.2533500E-004
  1.0107200E-003  8.4652500E-004  1.2265400E-004
  1.0341100E-003  2.6690500E-004  1.1970400E-004
  1.0515200E-003 -3.3768000E-004  1.1650100E-004
  1.0625800E-003 -9.6710000E-004  1.1306000E-004
  1.0672900E-003 -1.6199600E-003  1.0939900E-004
  1.0653600E-003 -2.2957400E-003  1.0553600E-004
  1.0568100E-003 -2.9932900E-003  1.0149100E-004
  1.0415100E-003 -3.7116700E-003  9.7286100E-005
  1.0194900E-003 -4.4499600E-003  9.2943300E-005
  9.9075300E-004 -5.2069000E-003  8.8486700E-005
  9.5533900E-004 -5.9817500E-003  8.3938600E-005
  9.1340200E-004 -6.7730800E-003  7.9324700E-005
  8.6499000E-004 -7.5801900E-003  7.4668200E-005
  8.1035400E-004 -8.4016700E-003  6.9994300E-005
  7.4959300E-004 -9.2367400E-003  6.5326400E-005
  6.8300200E-004 -1.0084200E-002  6.0688500E-005
  6.1075000E-004 -1.0943100E-002  5.6103500E-005
  5.3315000E-004 -1.1812300E-002  5.1593100E-005
  4.5043500E-004 -1.2691100E-002  4.7178800E-005
  3.6291800E-004 -1.3578300E-002  4.2880000E-005
  2.7088200E-004 -1.4473200E-002  3.8715600E-005
  1.7463500E-004 -1.5374800E-002  3.4702400E-005
  7.4487100E-005 -1.6282500E-002  3.0855900E-005
 -2.9257700E-005 -1.7195300E-002  2.7190100E-005
 -1.3628300E-004 -1.8112700E-002  2.3716800E-005
 -2.4629800E-004 -1.9034000E-002  2.0446600E-005
 -3.5898900E-004 -1.9958400E-002  1.7387700E-005
 -4.7409000E-004 -2.0885700E-002  1.4546800E-005
 -5.9129500E-004 -2.1815100E-002  1.1928500E-005
 -7.1037500E-004 -2.2746500E-002  9.5359900E-006
 -8.3103400E-004 -2.3679000E-002  7.3703700E-006
 -9.5309000E-004 -2.4612800E-002  5.4313600E-006
 -1.0762700E-003 -2.5547200E-002  3.7169400E-006
 -1.2004200E-003 -2.6482300E-002  2.2242200E-006
 -1.3253200E-003 -2.7417400E-002  9.4850400E-007
 -1.4508200E-003 -2.8353100E-002 -1.1457600E-007
 -1.5767900E-003 -2.9288400E-002 -9.7151600E-007
 -1.7030100E-003 -3.0224200E-002 -1.6270400E-006
 -1.8295600E-003 -3.1159200E-002 -2.0886100E-006
 -1.9558900E-003 -3.2095300E-002 -2.3629900E-006
 -2.3114400E-003 -3.2046600E-002 -2.4638100E-006
 -2.1846500E-003 -3.1111200E-002 -2.1951300E-006
 -2.0582800E-003 -3.0175600E-002 -1.7421700E-006
 -1.9319300E-003 -2.9240200E-002 -1.1008500E-006
 -1.8059100E-003 -2.8304500E-002 -2.6334000E-007
 -1.6802800E-003 -2.7369000E-002  7.7509900E-007
 -1.5551500E-003 -2.6433500E-002  2.0205700E-006
 -1.4307300E-003 -2.5498500E-002  3.4775400E-006
 -1.3071200E-003 -2.4563900E-002  5.1503400E-006
 -1.1845800E-003 -2.3630200E-002  7.0418600E-006
 -1.0632200E-003 -2.2697400E-002  9.1539300E-006
 -9.4334800E-004 -2.1766100E-002  1.1486800E-005
 -8.2511300E-004 -2.0836500E-002  1.4039300E-005
 -7.0883500E-004 -1.9909300E-002  1.6808300E-005
 -5.9470600E-004 -1.8984700E-002  1.9789300E-005
 -4.8305300E-004 -1.8063500E-002  2.2975700E-005
 -3.7410700E-004 -1.7146200E-002  2.6359400E-005
 -2.6819200E-004 -1.6233400E-002  2.9930100E-005
 -1.6556800E-004 -1.5325900E-002  3.3676200E-005
 -6.6554600E-005 -1.4424500E-002  3.7584100E-005
  2.8577000E-005 -1.3529800E-002  4.1638900E-005
  1.1951600E-004 -1.2642900E-002  4.5823700E-005
  2.0599700E-004 -1.1764500E-002  5.0120700E-005
  2.8772300E-004 -1.0895600E-002  5.4510500E-005
  3.6445300E-004 -1.0037200E-002  5.8972600E-005
  4.3591000E-004 -9.1902900E-003  6.3485600E-005
  5.0188300E-004 -8.3559000E-003  6.8027300E-005
  5.6214900E-004 -7.5349800E-003  7.2574700E-005
  6.1651900E-004 -6.7287300E-003  7.7104500E-005
  6.6484900E-004 -5.9380600E-003  8.1592900E-005
  7.0696800E-004 -5.1641900E-003  8.6016600E-005
  7.4283500E-004 -4.4080500E-003  9.0351800E-005
  7.7230200E-004 -3.6707900E-003  9.4575600E-005
  7.9543200E-004 -2.9534000E-003  9.8665300E-005
  8.1212400E-004 -2.2568700E-003  1.0260000E-004
  8.2252300E-004 -1.5822700E-003  1.0635700E-004
  8.2661500E-004 -9.3036200E-004  1.0991900E-004
  8.2458800E-004 -3.0229900E-004  1.1326700E-004
  8.1655600E-004  3.0138700E-004  1.1638400E-004
  8.0270900E-004  8.7956400E-004  1.1925400E-004
  7.8331500E-004  1.4318600E-003  1.2186600E-004
  7.5854600E-004  1.9572900E-003  1.2420600E-004
  7.2881500E-004  2.4555600E-003  1.2626400E-004
  6.9428600E-004  2.9259400E-003  1.2803300E-004
  6.5547000E-004  3.3681100E-003  1.2950600E-004
  6.1256000E-004  3.7817300E-003  1.3067800E-004
  5.6609700E-004  4.1664300E-003  1.3154600E-004
  5.1634800E-004  4.5222300E-003  1.3210700E-004
  4.6381400E-004  4.8487400E-003  1.3236100E-004
  4.0886900E-004  5.1463400E-003  1.3230900E-004
  3.5192300E-004  5.4146600E-003  1.3195300E-004
  2.9346500E-004  5.6543100E-003  1.3129600E-004
  2.3379900E-004  5.8651200E-003  1.3034000E-004
  1.7349300E-004  6.0477600E-003  1.2909100E-004
  1.1277500E-004  6.2023800E-003  1.2755300E-004
  5.2225500E-005  6.3295900E-003  1.2573200E-004
 -7.9575000E-006  6.4299200E-003  1.2363300E-004
 -6.7246600E-005  6.5039200E-003  1.2126300E-004
 -1.2543000E-004  6.5524100E-003  1.1862800E-004
 -1.8208800E-004  6.5759600E-003  1.1573500E-004
 -2.3696400E-004  6.5755800E-003  1.1259000E-004
 -2.8977800E-004  6.5519400E-003  1.0920100E-004
 -3.4022600E-004  6.5061100E-003  1.0557400E-004
 -3.8815400E-004  6.4389900E-003  1.0171700E-004
 -4.3325000E-004  6.3515500E-003  9.7637900E-005
 -4.7544200E-004  6.2450100E-003  9.3343300E-005
 -5.1445700E-004  6.1201600E-003  8.8841300E-005
 -5.5025800E-004  5.9785700E-003  8.4139800E-005
 -5.8265700E-004  5.8208400E-003  7.9247400E-005
 -6.1160400E-004  5.6488300E-003  7.4172500E-005
 -6.3703400E-004  5.4629900E-003  6.8924700E-005
 -6.5885300E-004  5.2654000E-003  6.3513200E-005
 -6.7712400E-004  5.0564200E-003  5.7949000E-005
 -6.9171200E-004  4.8382700E-003  5.2243000E-005
 -7.0278100E-004  4.6112500E-003  4.6407500E-005
 -7.1018200E-004  4.3777100E-003  4.0456000E-005
 -7.1413400E-004  4.1378600E-003  3.4403400E-005
 -7.1451600E-004  3.8941800E-003  2.8266500E-005
 -7.1154100E-004  3.6467300E-003  2.2064100E-005
 -7.0516400E-004  3.3982600E-003  1.5817600E-005
 -6.9553200E-004  3.1484500E-003  9.5514900E-006
 -6.8272300E-004  2.9005600E-003  3.2943700E-006
 -6.6675900E-004  2.6536300E-003 -2.9208500E-006
 -6.4788200E-004  2.4116600E-003 -9.0552200E-006
 -6.2592800E-004  2.1728000E-003 -1.5062900E-005
 -6.0137100E-004  1.9420800E-003 -2.0889500E-005
 -5.7374600E-004  1.7164000E-003 -2.6469900E-005
 -5.4391000E-004  1.5021800E-003 -3.1725900E-005
 -5.1086000E-004  1.2946800E-003 -3.6563200E-005
 -4.7616400E-004  1.1021600E-003 -4.0867500E-005
 -4.3779400E-004  9.1768700E-004 -4.4499700E-005
 -3.9871900E-004  7.5199800E-004 -4.7289700E-005
 -3.5488200E-004  5.9516900E-004 -4.9029700E-005
 -3.1206900E-004  4.6142700E-004 -4.9461100E-005
 -2.6216900E-004  3.3658200E-004 -4.8269800E-005
 -2.1670900E-004  2.3994600E-004 -4.5050800E-005
 -1.5947900E-004  1.5151200E-004 -3.9336600E-005
 -1.1413500E-004  9.6565700E-005 -3.0476500E-005
 -4.8661300E-005  4.9082500E-005 -1.7944700E-005
 -2.6664500E-003 -3.1998300E-002 -2.7608300E-006
 -2.5400600E-003 -3.1062800E-002 -2.5062000E-006
 -2.4133600E-003 -3.0127300E-002 -2.0802600E-006
 -2.2870800E-003 -2.9191700E-002 -1.4796600E-006
 -2.1608800E-003 -2.8256100E-002 -6.9827400E-007
 -2.0351000E-003 -2.7320500E-002  2.6937900E-007
 -1.9097400E-003 -2.6385000E-002  1.4281700E-006
 -1.7849700E-003 -2.5449900E-002  2.7826900E-006
 -1.6609500E-003 -2.4515300E-002  4.3364600E-006
 -1.5378200E-003 -2.3581400E-002  6.0922100E-006
 -1.4158000E-003 -2.2648700E-002  8.0513400E-006
 -1.2950300E-003 -2.1717300E-002  1.0214000E-005
 -1.1757900E-003 -2.0787800E-002  1.2578800E-005
 -1.0582500E-003 -1.9860600E-002  1.5142900E-005
 -9.4269700E-004 -1.8936100E-002  1.7901800E-005
 -8.2933600E-004 -1.8014900E-002  2.0849300E-005
 -7.1847600E-004 -1.7097700E-002  2.3977800E-005
 -6.1033900E-004 -1.6185100E-002  2.7277700E-005
 -5.0524100E-004 -1.5277900E-002  3.0738200E-005
 -4.0342200E-004 -1.4376700E-002  3.4346700E-005
 -3.0519900E-004 -1.3482300E-002  3.8089200E-005
 -2.1081000E-004 -1.2595800E-002  4.1950300E-005
 -1.2057000E-004 -1.1717800E-002  4.5913400E-005
 -3.4702200E-005 -1.0849500E-002  4.9960700E-005
  4.6494200E-005 -9.9916300E-003  5.4073300E-005
  1.2281800E-004 -9.1453500E-003  5.8231500E-005
  1.9399800E-004 -8.3116200E-003  6.2415000E-005
  2.5986400E-004 -7.4915100E-003  6.6602700E-005
  3.2020500E-004 -6.6860400E-003  7.0773100E-005
  3.7486200E-004 -5.8963000E-003  7.4904900E-005
  4.2372000E-004 -5.1233400E-003  7.8976100E-005
  4.6662100E-004 -4.3682100E-003  8.2965700E-005
  5.0357200E-004 -3.6319900E-003  8.6852400E-005
  5.3442000E-004 -2.9156700E-003  9.0615900E-005
  5.5928800E-004 -2.2203000E-003  9.4236300E-005
  5.7806100E-004 -1.5467900E-003  9.7695000E-005
  5.9094100E-004 -8.9615400E-004  1.0097400E-004
  5.9790400E-004 -2.6919100E-004  1.0405700E-004
  5.9917700E-004  3.3317600E-004  1.0692900E-004
  5.9487900E-004  9.1024400E-004  1.0957700E-004
  5.8520700E-004  1.4612300E-003  1.1198700E-004
  5.7046000E-004  1.9855400E-003  1.1415000E-004
  5.5078000E-004  2.4825600E-003  1.1605700E-004
  5.2662500E-004  2.9517900E-003  1.1769900E-004
  4.9811000E-004  3.3928300E-003  1.1907200E-004
  4.6579000E-004  3.8053000E-003  1.2017100E-004
  4.2980300E-004  4.1890000E-003  1.2099300E-004
  3.9071200E-004  4.5436800E-003  1.2153600E-004
  3.4874700E-004  4.8693200E-003  1.2180000E-004
  3.0439200E-004  5.1658400E-003  1.2178500E-004
  2.5801100E-004  5.4334100E-003  1.2149300E-004
  2.0996100E-004  5.6720800E-003  1.2092700E-004
  1.6073600E-004  5.8822100E-003  1.2008800E-004
  1.1056900E-004  6.0640200E-003  1.1898300E-004
  6.0033000E-005  6.2180000E-003  1.1761300E-004
  9.2835900E-006  6.3445300E-003  1.1598500E-004
 -4.1110800E-005  6.4442600E-003  1.1410300E-004
 -9.1001300E-005  6.5177100E-003  1.1197300E-004
 -1.3991300E-004  6.5656400E-003  1.0960000E-004
 -1.8763900E-004  6.5887300E-003  1.0698900E-004
 -2.3386200E-004  6.5878600E-003  1.0414700E-004
 -2.7828900E-004  6.5637900E-003  1.0107900E-004
 -3.2077100E-004  6.5175600E-003  9.7792300E-005
 -3.6094900E-004  6.4499900E-003  9.4292000E-005
 -3.9881100E-004  6.3622500E-003  9.0584700E-005
 -4.3398500E-004  6.2551800E-003  8.6677000E-005
 -4.6653000E-004  6.1301400E-003  8.2575500E-005
 -4.9613000E-004  5.9879300E-003  7.8287200E-005
 -5.2285200E-004  5.8300800E-003  7.3819200E-005
 -5.4648700E-004  5.6573500E-003  6.9179300E-005
 -5.6706500E-004  5.4714300E-003  6.4375400E-005
 -5.8450600E-004  5.2730200E-003  5.9416300E-005
 -5.9879600E-004  5.0639800E-003  5.4311100E-005
 -6.0995800E-004  4.8448800E-003  4.9070100E-005
 -6.1797300E-004  4.6178200E-003  4.3704100E-005
 -6.2290100E-004  4.3831900E-003  3.8225500E-005
 -6.2478100E-004  4.1433100E-003  3.2647900E-005
 -6.2362900E-004  3.8983700E-003  2.6986500E-005