# vtk DataFile Version 3.0
MMH: CalculiX output 'object.frd' file to 'vtk' format
ASCII
DATASET UNSTRUCTURED_GRID
POINTS 3232 double
 6.00000000E-001 2.10000000E-001 0.00000000E+000
 6.00000000E-001 2.08667000E-001 0.00000000E+000
 6.00000000E-001 2.07333000E-001 0.00000000E+000
 6.00000000E-001 2.06000000E-001 0.00000000E+000
 6.00000000E-001 2.04667000E-001 0.00000000E+000
 6.00000000E-001 2.03333000E-001 0.00000000E+000
 6.00000000E-001 2.02000000E-001 0.00000000E+000
 6.00000000E-001 2.00667000E-001 0.00000000E+000
 6.00000000E-001 1.99333000E-001 0.00000000E+000
 6.00000000E-001 1.98000000E-001 0.00000000E+000
 6.00000000E-001 1.96667000E-001 0.00000000E+000
 6.00000000E-001 1.95333000E-001 0.00000000E+000
 6.00000000E-001 1.94000000E-001 0.00000000E+000
 6.00000000E-001 1.92667000E-001 0.00000000E+000
 6.00000000E-001 1.91333000E-001 0.00000000E+000
 6.00000000E-001 1.90000000E-001 0.00000000E+000
 5.96490000E-001 1.90000000E-001 0.00000000E+000
 5.92980000E-001 1.90000000E-001 0.00000000E+000
 5.89470000E-001 1.90000000E-001 0.00000000E+000
 5.85960000E-001 1.90000000E-001 0.00000000E+000
 5.82449000E-001 1.90000000E-001 0.00000000E+000
 5.78939000E-001 1.90000000E-001 0.00000000E+000
 5.75429000E-001 1.90000000E-001 0.00000000E+000
 5.71919000E-001 1.90000000E-001 0.00000000E+000
 5.68409000E-001 1.90000000E-001 0.00000000E+000
 5.64899000E-001 1.90000000E-001 0.00000000E+000
 5.61389000E-001 1.90000000E-001 0.00000000E+000
 5.57879000E-001 1.90000000E-001 0.00000000E+000
 5.54369000E-001 1.90000000E-001 0.00000000E+000
 5.50859000E-001 1.90000000E-001 0.00000000E+000
 5.47348000E-001 1.90000000E-001 0.00000000E+000
 5.43838000E-001 1.90000000E-001 0.00000000E+000
 5.40328000E-001 1.90000000E-001 0.00000000E+000
 5.36818000E-001 1.90000000E-001 0.00000000E+000
 5.33308000E-001 1.90000000E-001 0.00000000E+000
 5.29798000E-001 1.90000000E-001 0.00000000E+000
 5.26288000E-001 1.90000000E-001 0.00000000E+000
 5.22778000E-001 1.90000000E-001 0.00000000E+000
 5.19268000E-001 1.90000000E-001 0.00000000E+000
 5.15758000E-001 1.90000000E-001 0.00000000E+000
 5.12247000E-001 1.90000000E-001 0.00000000E+000
 5.08737000E-001 1.90000000E-001 0.00000000E+000
 5.05227000E-001 1.90000000E-001 0.00000000E+000
 5.01717000E-001 1.90000000E-001 0.00000000E+000
 4.98207000E-001 1.90000000E-001 0.00000000E+000
 4.94697000E-001 1.90000000E-001 0.00000000E+000
 4.91187000E-001 1.90000000E-001 0.00000000E+000
 4.87677000E-001 1.90000000E-001 0.00000000E+000
 4.84167000E-001 1.90000000E-001 0.00000000E+000
 4.80657000E-001 1.90000000E-001 0.00000000E+000
 4.77146000E-001 1.90000000E-001 0.00000000E+000
 4.73636000E-001 1.90000000E-001 0.00000000E+000
 4.70126000E-001 1.90000000E-001 0.00000000E+000
 4.66616000E-001 1.90000000E-001 0.00000000E+000
 4.63106000E-001 1.90000000E-001 0.00000000E+000
 4.59596000E-001 1.90000000E-001 0.00000000E+000
 4.56086000E-001 1.90000000E-001 0.00000000E+000
 4.52576000E-001 1.90000000E-001 0.00000000E+000
 4.49066000E-001 1.90000000E-001 0.00000000E+000
 4.45556000E-001 1.90000000E-001 0.00000000E+000
 4.42045000E-001 1.90000000E-001 0.00000000E+000
 4.38535000E-001 1.90000000E-001 0.00000000E+000
 4.35025000E-001 1.90000000E-001 0.00000000E+000
 4.31515000E-001 1.90000000E-001 0.00000000E+000
 4.28005000E-001 1.90000000E-001 0.00000000E+000
 4.24495000E-001 1.90000000E-001 0.00000000E+000
 4.20985000E-001 1.90000000E-001 0.00000000E+000
 4.17475000E-001 1.90000000E-001 0.00000000E+000
 4.13965000E-001 1.90000000E-001 0.00000000E+000
 4.10455000E-001 1.90000000E-001 0.00000000E+000
 4.06944000E-001 1.90000000E-001 0.00000000E+000
 4.03434000E-001 1.90000000E-001 0.00000000E+000
 3.99924000E-001 1.90000000E-001 0.00000000E+000
 3.96414000E-001 1.90000000E-001 0.00000000E+000
 3.92904000E-001 1.90000000E-001 0.00000000E+000
 3.89394000E-001 1.90000000E-001 0.00000000E+000
 3.85884000E-001 1.90000000E-001 0.00000000E+000
 3.82374000E-001 1.90000000E-001 0.00000000E+000
 3.78864000E-001 1.90000000E-001 0.00000000E+000
 3.75353000E-001 1.90000000E-001 0.00000000E+000
 3.71843000E-001 1.90000000E-001 0.00000000E+000
 3.68333000E-001 1.90000000E-001 0.00000000E+000
 3.64823000E-001 1.90000000E-001 0.00000000E+000
 3.61313000E-001 1.90000000E-001 0.00000000E+000
 3.57803000E-001 1.90000000E-001 0.00000000E+000
 3.54293000E-001 1.90000000E-001 0.00000000E+000
 3.50783000E-001 1.90000000E-001 0.00000000E+000
 3.47273000E-001 1.90000000E-001 0.00000000E+000
 3.43763000E-001 1.90000000E-001 0.00000000E+000
 3.40252000E-001 1.90000000E-001 0.00000000E+000
 3.36742000E-001 1.90000000E-001 0.00000000E+000
 3.33232000E-001 1.90000000E-001 0.00000000E+000
 3.29722000E-001 1.90000000E-001 0.00000000E+000
 3.26212000E-001 1.90000000E-001 0.00000000E+000
 3.22702000E-001 1.90000000E-001 0.00000000E+000
 3.19192000E-001 1.90000000E-001 0.00000000E+000
 3.15682000E-001 1.90000000E-001 0.00000000E+000
 3.12172000E-001 1.90000000E-001 0.00000000E+000
 3.08661000E-001 1.90000000E-001 0.00000000E+000
 3.05151000E-001 1.90000000E-001 0.00000000E+000
 3.01641000E-001 1.90000000E-001 0.00000000E+000
 2.98131000E-001 1.90000000E-001 0.00000000E+000
 2.94621000E-001 1.90000000E-001 0.00000000E+000
 2.91111000E-001 1.90000000E-001 0.00000000E+000
 2.87601000E-001 1.90000000E-001 0.00000000E+000
 2.84091000E-001 1.90000000E-001 0.00000000E+000
 2.80581000E-001 1.90000000E-001 0.00000000E+000
 2.77071000E-001 1.90000000E-001 0.00000000E+000
 2.73560000E-001 1.90000000E-001 0.00000000E+000
 2.70050000E-001 1.90000000E-001 0.00000000E+000
 2.66540000E-001 1.90000000E-001 0.00000000E+000
 2.63030000E-001 1.90000000E-001 0.00000000E+000
 2.59520000E-001 1.90000000E-001 0.00000000E+000
 2.56010000E-001 1.90000000E-001 0.00000000E+000
 2.52500000E-001 1.90000000E-001 0.00000000E+000
 2.48990000E-001 1.90000000E-001 0.00000000E+000
 2.48990000E-001 1.91333000E-001 0.00000000E+000
 2.48990000E-001 1.92667000E-001 0.00000000E+000
 2.48990000E-001 1.94000000E-001 0.00000000E+000
 2.48990000E-001 1.95333000E-001 0.00000000E+000
 2.48990000E-001 1.96667000E-001 0.00000000E+000
 2.48990000E-001 1.98000000E-001 0.00000000E+000
 2.48990000E-001 1.99333000E-001 0.00000000E+000
 2.48990000E-001 2.00667000E-001 0.00000000E+000
 2.48990000E-001 2.02000000E-001 0.00000000E+000
 2.48990000E-001 2.03333000E-001 0.00000000E+000
 2.48990000E-001 2.04667000E-001 0.00000000E+000
 2.48990000E-001 2.06000000E-001 0.00000000E+000
 2.48990000E-001 2.07333000E-001 0.00000000E+000
 2.48990000E-001 2.08667000E-001 0.00000000E+000
 2.48990000E-001 2.10000000E-001 0.00000000E+000
 2.52500000E-001 2.10000000E-001 0.00000000E+000
 2.56010000E-001 2.10000000E-001 0.00000000E+000
 2.59520000E-001 2.10000000E-001 0.00000000E+000
 2.63030000E-001 2.10000000E-001 0.00000000E+000
 2.66540000E-001 2.10000000E-001 0.00000000E+000
 2.70050000E-001 2.10000000E-001 0.00000000E+000
 2.73560000E-001 2.10000000E-001 0.00000000E+000
 2.77071000E-001 2.10000000E-001 0.00000000E+000
 2.80581000E-001 2.10000000E-001 0.00000000E+000
 2.84091000E-001 2.10000000E-001 0.00000000E+000
 2.87601000E-001 2.10000000E-001 0.00000000E+000
 2.91111000E-001 2.10000000E-001 0.00000000E+000
 2.94621000E-001 2.10000000E-001 0.00000000E+000
 2.98131000E-001 2.10000000E-001 0.00000000E+000
 3.01641000E-001 2.10000000E-001 0.00000000E+000
 3.05151000E-001 2.10000000E-001 0.00000000E+000
 3.08661000E-001 2.10000000E-001 0.00000000E+000
 3.12172000E-001 2.10000000E-001 0.00000000E+000
 3.15682000E-001 2.10000000E-001 0.00000000E+000
 3.19192000E-001 2.10000000E-001 0.00000000E+000
 3.22702000E-001 2.10000000E-001 0.00000000E+000
 3.26212000E-001 2.10000000E-001 0.00000000E+000
 3.29722000E-001 2.10000000E-001 0.00000000E+000
 3.33232000E-001 2.10000000E-001 0.00000000E+000
 3.36742000E-001 2.10000000E-001 0.00000000E+000
 3.40252000E-001 2.10000000E-001 0.00000000E+000
 3.43763000E-001 2.10000000E-001 0.00000000E+000
 3.47273000E-001 2.10000000E-001 0.00000000E+000
 3.50783000E-001 2.10000000E-001 0.00000000E+000
 3.54293000E-001 2.10000000E-001 0.00000000E+000
 3.57803000E-001 2.10000000E-001 0.00000000E+000
 3.61313000E-001 2.10000000E-001 0.00000000E+000
 3.64823000E-001 2.10000000E-001 0.00000000E+000
 3.68333000E-001 2.10000000E-001 0.00000000E+000
 3.71843000E-001 2.10000000E-001 0.00000000E+000
 3.75353000E-001 2.10000000E-001 0.00000000E+000
 3.78864000E-001 2.10000000E-001 0.00000000E+000
 3.82374000E-001 2.10000000E-001 0.00000000E+000
 3.85884000E-001 2.10000000E-001 0.00000000E+000
 3.89394000E-001 2.10000000E-001 0.00000000E+000
 3.92904000E-001 2.10000000E-001 0.00000000E+000
 3.96414000E-001 2.10000000E-001 0.00000000E+000
 3.99924000E-001 2.10000000E-001 0.00000000E+000
 4.03434000E-001 2.10000000E-001 0.00000000E+000
 4.06944000E-001 2.10000000E-001 0.00000000E+000
 4.10455000E-001 2.10000000E-001 0.00000000E+000
 4.13965000E-001 2.10000000E-001 0.00000000E+000
 4.17475000E-001 2.10000000E-001 0.00000000E+000
 4.20985000E-001 2.10000000E-001 0.00000000E+000
 4.24495000E-001 2.10000000E-001 0.00000000E+000
 4.28005000E-001 2.10000000E-001 0.00000000E+000
 4.31515000E-001 2.10000000E-001 0.00000000E+000
 4.35025000E-001 2.10000000E-001 0.00000000E+000
 4.38535000E-001 2.10000000E-001 0.00000000E+000
 4.42045000E-001 2.10000000E-001 0.00000000E+000
 4.45556000E-001 2.10000000E-001 0.00000000E+000
 4.49066000E-001 2.10000000E-001 0.00000000E+000
 4.52576000E-001 2.10000000E-001 0.00000000E+000
 4.56086000E-001 2.10000000E-001 0.00000000E+000
 4.59596000E-001 2.10000000E-001 0.00000000E+000
 4.63106000E-001 2.10000000E-001 0.00000000E+000
 4.66616000E-001 2.10000000E-001 0.00000000E+000
 4.70126000E-001 2.10000000E-001 0.00000000E+000
 4.73636000E-001 2.10000000E-001 0.00000000E+000
 4.77146000E-001 2.10000000E-001 0.00000000E+000
 4.80657000E-001 2.10000000E-001 0.00000000E+000
 4.84167000E-001 2.10000000E-001 0.00000000E+000
 4.87677000E-001 2.10000000E-001 0.00000000E+000
 4.91187000E-001 2.10000000E-001 0.00000000E+000
 4.94697000E-001 2.10000000E-001 0.00000000E+000
[...]
POINT_DATA 3232
VECTORS DISP double
 -6.7917900E-003  2.5162400E-002 -3.9072700E-006
 -6.4491700E-003  2.5207200E-002 -3.7851900E-006
 -6.1056900E-003  2.5252100E-002 -3.4195800E-006
 -5.7627100E-003  2.5296900E-002 -2.8302500E-006
 -5.4195100E-003  2.5341700E-002 -2.0482200E-006
 -5.0764700E-003  2.5386600E-002 -1.1065400E-006
 -4.7333700E-003  2.5431400E-002 -4.6459500E-008
 -4.3903700E-003  2.5476300E-002  1.0879000E-006
 -4.0472700E-003  2.5521200E-002  2.2490800E-006
 -3.7042700E-003  2.5566200E-002  3.3893300E-006
 -3.3611500E-003  2.5611200E-002  4.4605700E-006
 -3.0181500E-003  2.5656100E-002  5.4191400E-006
 -2.6748400E-003  2.5701200E-002  6.2222200E-006
 -2.3319600E-003  2.5746100E-002  6.8373800E-006
 -1.9880400E-003  2.5791500E-002  7.2253700E-006
 -1.6457700E-003  2.5835300E-002  7.3551400E-006
 -1.5278600E-003  2.4933800E-002  7.4459800E-006
 -1.4107200E-003  2.4029100E-002  7.7516600E-006
 -1.2933800E-003  2.3126600E-002  8.2921700E-006
 -1.1764300E-003  2.2222300E-002  9.0783100E-006
 -1.0599400E-003  2.1319300E-002  1.0125000E-005
 -9.4405200E-004  2.0415200E-002  1.1438100E-005
 -8.2910000E-004  1.9512300E-002  1.3027100E-005
 -7.1515600E-004  1.8609100E-002  1.4895100E-005
 -6.0265100E-004  1.7707300E-002  1.7045200E-005
 -4.9168800E-004  1.6806100E-002  1.9476200E-005
 -3.8272000E-004  1.5906900E-002  2.2184900E-005
 -2.7591800E-004  1.5009400E-002  2.5164800E-005
 -1.7171500E-004  1.4114900E-002  2.8406600E-005
 -7.0357600E-005  1.3223300E-002  3.1897900E-005
  2.7757200E-005  1.2335900E-002  3.5624300E-005
  1.2232900E-004  1.1453000E-002  3.9568200E-005
  2.1299400E-004  1.0575700E-002  4.3710200E-005
  2.9942700E-004  9.7047600E-003  4.8028500E-005
  3.8129700E-004  8.8411800E-003  5.2499700E-005
  4.5828000E-004  7.9857800E-003  5.7098700E-005
  5.3008400E-004  7.1397400E-003  6.1799000E-005
  5.9640500E-004  6.3039800E-003  6.6573500E-005
  6.5700600E-004  5.4796700E-003  7.1393700E-005
  7.1160700E-004  4.6678500E-003  7.6231800E-005
  7.6005400E-004  3.8696300E-003  8.1058600E-005
  8.0209100E-004  3.0862500E-003  8.5846400E-005
  8.3766100E-004  2.3186700E-003  9.0567200E-005
  8.6655100E-004  1.5682500E-003  9.5194100E-005
  8.8879900E-004  8.3578500E-004  9.9701800E-005
  9.0426100E-004  1.2276400E-004  1.0406500E-004
  9.1304000E-004 -5.7017400E-004  1.0826100E-004
  9.1510800E-004 -1.2415700E-003  1.1226900E-004
  9.1059400E-004 -1.8908100E-003  1.1607000E-004
  8.9962100E-004 -2.5166700E-003  1.1964600E-004
  8.8232100E-004 -3.1184000E-003  1.2298300E-004
  8.5896600E-004 -3.6951800E-003  1.2606600E-004
  8.2969700E-004 -4.2460600E-003  1.2888600E-004
  7.9490200E-004 -4.7707000E-003  1.3143400E-004
  7.5476000E-004 -5.2679500E-003  1.3370100E-004
  7.0971700E-004 -5.7378800E-003  1.3568400E-004
  6.6003200E-004 -6.1793400E-003  1.3737800E-004
  6.0614200E-004 -6.5926000E-003  1.3878400E-004
  5.4841800E-004 -6.9767300E-003  1.3989800E-004
  4.8725000E-004 -7.3319800E-003  1.4072400E-004
  4.2310900E-004 -7.6578600E-003  1.4126200E-004
  3.5633900E-004 -7.9544200E-003  1.4151500E-004
  2.8747100E-004 -8.2217400E-003  1.4148700E-004
  2.1682800E-004 -8.4596100E-003  1.4118100E-004
  1.4494300E-004 -8.6686300E-003  1.4060300E-004
  7.2151900E-005 -8.8484300E-003  1.3975600E-004
 -1.0631100E-006 -8.9999900E-003  1.3864600E-004
 -7.4330800E-005 -9.1229700E-003  1.3727600E-004
 -1.4724800E-004 -9.2184400E-003  1.3565200E-004
 -2.1941600E-004 -9.2863700E-003  1.3377700E-004
 -2.9050300E-004 -9.3276900E-003  1.3165800E-004
 -3.6011600E-004 -9.3428000E-003  1.2929700E-004
 -4.2796800E-004 -9.3324100E-003  1.2669800E-004
 -4.9371700E-004 -9.2973800E-003  1.2386500E-004
 -5.5708200E-004 -9.2382100E-003  1.2080200E-004
 -6.1781600E-004 -9.1560900E-003  1.1751200E-004
 -6.7561300E-004 -9.0514800E-003  1.1399700E-004
 -7.3034500E-004 -8.9256900E-003  1.1026200E-004
 -7.8167900E-004 -8.7793600E-003  1.0630700E-004
 -8.2959300E-004 -8.6136400E-003  1.0213700E-004
 -8.7375100E-004 -8.4296000E-003  9.7754000E-005
 -9.1420600E-004 -8.2280400E-003  9.3160900E-005
 -9.5065300E-004 -8.0105600E-003  8.8360600E-005
 -9.8318300E-004 -7.7775400E-003  8.3356100E-005
 -1.0115500E-003 -7.5311100E-003  7.8151800E-005
 -1.0358600E-003 -7.2712800E-003  7.2750400E-005
 -1.0559200E-003 -7.0005600E-003  6.7158000E-005
 -1.0718700E-003 -6.7187800E-003  6.1378600E-005
 -1.0835500E-003 -6.4286400E-003  5.5419600E-005
 -1.0911300E-003 -6.1299300E-003  4.9288000E-005
 -1.0944700E-003 -5.8254200E-003  4.2992200E-005
 -1.0938100E-003 -5.5149400E-003  3.6543500E-005
 -1.0889300E-003 -5.2012900E-003  2.9953100E-005
 -1.0802400E-003 -4.8842700E-003  2.3237500E-005
 -1.0673800E-003 -4.5668600E-003  1.6412100E-005
 -1.0509200E-003 -4.2486000E-003  9.5010400E-006
 -1.0303500E-003 -3.9329500E-003  2.5263400E-006
 -1.0064300E-003 -3.6188000E-003 -4.4775400E-006
 -9.7848200E-004 -3.3105300E-003 -1.1477400E-005
 -9.4739500E-004 -3.0059300E-003 -1.8424700E-005
 -9.1239900E-004 -2.7107000E-003 -2.5269200E-005
 -8.7442200E-004 -2.4211200E-003 -3.1941000E-005
 -8.3269100E-004 -2.1446500E-003 -3.8364700E-005
 -7.8802900E-004 -1.8756000E-003 -4.4438000E-005
 -7.3984900E-004 -1.6236500E-003 -5.0047600E-005
 -6.8858500E-004 -1.3806400E-003 -5.5041100E-005
 -6.3421700E-004 -1.1590100E-003 -5.9249200E-005
 -5.7622500E-004 -9.4745800E-004 -6.2439900E-005
 -5.1595600E-004 -7.6209600E-004 -6.4360500E-005
 -4.5074700E-004 -5.8719800E-004 -6.4650300E-005
 -3.8504400E-004 -4.4442000E-004 -6.2929800E-005
 -3.1140700E-004 -3.1082700E-004 -5.8617300E-005
 -2.4177700E-004 -2.1828100E-004 -5.1154100E-005
 -1.5811800E-004 -1.2823600E-004 -3.9558500E-005
 -9.4438000E-005 -9.5393400E-005 -2.3238800E-005
  0.0000000E+000  0.0000000E+000  0.0000000E+000
  0.0000000E+000  0.0000000E+000  0.0000000E+000
  0.0000000E+000  0.0000000E+000  0.0000000E+000
  0.0000000E+000  0.0000000E+000  0.0000000E+000
  0.0000000E+000  0.0000000E+000  0.0000000E+000
  0.0000000E+000  0.0000000E+000  0.0000000E+000
  0.0000000E+000  0.0000000E+000  0.0000000E+000
  0.0000000E+000  0.0000000E+000  0.0000000E+000
  0.0000000E+000  0.0000000E+000  0.0000000E+000
  0.0000000E+000  0.0000000E+000  0.0000000E+000
  0.0000000E+000  0.0000000E+000  0.0000000E+000
  0.0000000E+000  0.0000000E+000  0.0000000E+000
  0.0000000E+000  0.0000000E+000  0.0000000E+000
  0.0000000E+000  0.0000000E+000  0.0000000E+000
  0.0000000E+000  0.0000000E+000  0.0000000E+000
  0.0000000E+000  0.0000000E+000  0.0000000E+000
  8.7255600E-005 -9.0012800E-005  2.5394700E-005
  1.4962000E-004 -1.2591200E-004  4.3809200E-005
  2.2709600E-004 -2.1776700E-004  5.7445100E-005
  2.9126600E-004 -3.1503600E-004  6.6954900E-005
  3.5682700E-004 -4.5220000E-004  7.3305200E-005
  4.1354100E-004 -6.0091100E-004  7.7050600E-005
  4.6754000E-004 -7.8022900E-004  7.8754000E-005
  5.1502300E-004 -9.7215300E-004  7.8779300E-005
  5.5808300E-004 -1.1884400E-003  7.7470700E-005
  5.9571400E-004 -1.4166700E-003  7.5063400E-005
  6.2821200E-004 -1.6643400E-003  7.1776500E-005
  6.5583600E-004 -1.9223700E-003  6.7763300E-005
  6.7813400E-004 -2.1956900E-003  6.3165900E-005
  6.9590000E-004 -2.4772500E-003  5.8085200E-005
  7.0841800E-004 -2.7704600E-003  5.2614500E-005
  7.1667500E-004 -3.0695000E-003  4.6821500E-005
  7.1990800E-004 -3.3768500E-003  4.0768400E-005
  7.1914200E-004 -3.6874900E-003  3.4501800E-005
  7.1365100E-004 -4.0032900E-003  2.8064100E-005
  7.0443600E-004 -4.3198400E-003  2.1489200E-005
  6.9083600E-004 -4.6385000E-003  1.4806600E-005
  6.7379200E-004 -4.9554400E-003  8.0423200E-006
  6.5272700E-004 -5.2714900E-003  1.2188700E-006
  6.2849100E-004 -5.5834500E-003 -5.6434200E-006
  6.0061100E-004 -5.8916000E-003 -1.2525600E-005
  5.6981700E-004 -6.1933900E-003 -1.9410900E-005
  5.3575000E-004 -6.4885500E-003 -2.6281900E-005
  4.9900300E-004 -6.7751000E-003 -3.3124200E-005
  4.5933600E-004 -7.0523600E-003 -3.9921000E-005
  4.1719700E-004 -7.3188200E-003 -4.6658900E-005
  3.7245600E-004 -7.5735100E-003 -5.3321000E-005
  3.2542400E-004 -7.8152000E-003 -5.9894200E-005
  2.7605600E-004 -8.0428900E-003 -6.6361900E-005
  2.2455700E-004 -8.2553800E-003 -7.2710100E-005
  1.7092500E-004 -8.4518200E-003 -7.8922900E-005
  1.1529500E-004 -8.6309600E-003 -8.4985100E-005
  5.7672700E-005 -8.7921600E-003 -9.0881200E-005
 -1.8461000E-006 -8.9340700E-003 -9.6595100E-005
 -6.3277000E-005 -9.0562800E-003 -1.0211200E-004
 -1.2654000E-004 -9.1574000E-003 -1.0741400E-004
 -1.9168800E-004 -9.2371600E-003 -1.1248800E-004
 -2.5864400E-004 -9.2942600E-003 -1.1731600E-004
 -3.2750000E-004 -9.3284200E-003 -1.2188400E-004
 -3.9818600E-004 -9.3385700E-003 -1.2617500E-004
 -4.7081900E-004 -9.3243700E-003 -1.3017400E-004
 -5.4534400E-004 -9.2850100E-003 -1.3386700E-004
 -6.2188700E-004 -9.2200400E-003 -1.3723900E-004
 -7.0041500E-004 -9.1289700E-003 -1.4027600E-004
 -7.8104500E-004 -9.0112800E-003 -1.4296600E-004
 -8.6377600E-004 -8.8667200E-003 -1.4529600E-004
 -9.4869900E-004 -8.6947700E-003 -1.4725600E-004
 -1.0358400E-003 -8.4953500E-003 -1.4883500E-004
 -1.1252600E-003 -8.2680800E-003 -1.5002500E-004
 -1.2170100E-003 -8.0129400E-003 -1.5081900E-004
 -1.3111200E-003 -7.7297400E-003 -1.5121100E-004
 -1.4076300E-003 -7.4185200E-003 -1.5119800E-004
 -1.5065500E-003 -7.0793000E-003 -1.5077800E-004
 -1.6079200E-003 -6.7121500E-003 -1.4995200E-004
 -1.7117100E-003 -6.3173300E-003 -1.4872200E-004
 -1.8179300E-003 -5.8949600E-003 -1.4709200E-004
 -1.9265400E-003 -5.4454800E-003 -1.4507100E-004
 -2.0375200E-003 -4.9691300E-003 -1.4266800E-004
 -2.1508000E-003 -4.4664800E-003 -1.3989600E-004
 -2.2663100E-003 -3.9379400E-003 -1.3676800E-004
 -2.3839700E-003 -3.3841400E-003 -1.3330300E-004
 -2.5036700E-003 -2.8056800E-003 -1.2952000E-004
 -2.6253100E-003 -2.2032400E-003 -1.2544200E-004
 -2.7487400E-003 -1.5776300E-003 -1.2109200E-004
 -2.8738300E-003 -9.2957000E-004 -1.1649600E-004
 -3.0004100E-003 -2.6000400E-004 -1.1168400E-004
 -3.1283400E-003  4.3028600E-004 -1.0668400E-004
 -3.2574200E-003  1.1402400E-003 -1.0152700E-004
 -3.3874800E-003  1.8690100E-003 -9.6245900E-005
 -3.5183500E-003  2.6155000E-003 -9.0872800E-005
 -3.6498300E-003  3.3787500E-003 -8.5441000E-005
 -3.7817500E-003  4.1577200E-003 -7.9983900E-005
 -3.9138900E-003  4.9513000E-003 -7.4534500E-005
 -4.0461300E-003  5.7585300E-003 -6.9125300E-005
 -4.1782500E-003  6.5782300E-003 -6.3788400E-005
 -4.3101300E-003  7.4095300E-003 -5.8554100E-005
 -4.4416000E-003  8.2512200E-003 -5.3452000E-005
 -4.5725300E-003  9.1024700E-003 -4.8509300E-005
 -4.7028100E-003  9.9621600E-003 -4.3752100E-005
 -4.8323300E-003  1.0829500E-002 -3.9203500E-005
 -4.9610300E-003  1.1703400E-002 -3.4885000E-005
 -5.0888000E-003  1.2583100E-002 -3.0815200E-005
 -5.2156700E-003  1.3467800E-002 -2.7010200E-005
 -5.3415200E-003  1.4356700E-002 -2.3483400E-005
 -5.4664500E-003  1.5249300E-002 -2.0244900E-005
 -5.5903700E-003  1.6144600E-002 -1.7302800E-005
 -5.7134400E-003  1.7042300E-002 -1.4661100E-005
 -5.8355600E-003  1.7941700E-002 -1.2322100E-005
 -5.9569700E-003  1.8842600E-002 -1.0284400E-005
 -6.0775600E-003  1.9744300E-002 -8.5442000E-006
 -6.1976600E-003  2.0646900E-002 -7.0956300E-006
 -6.3170600E-003  2.1549600E-002 -5.9299600E-006
 -6.4362800E-003  2.2452900E-002 -5.0381800E-006
 -6.5548500E-003  2.3355900E-002 -4.4093900E-006
 -6.6737800E-003  2.4259300E-002 -4.0330900E-006
 -6.3303100E-003  2.4304100E-002 -3.9069700E-006
 -6.2119300E-003  2.3400700E-002 -4.2742600E-006
 -6.0930200E-003  2.2497500E-002 -4.8894800E-006
 -5.9740300E-003  2.1594300E-002 -5.7608100E-006
 -5.8545300E-003  2.0691300E-002 -6.8993700E-006
 -5.7346600E-003  1.9788700E-002 -8.3138400E-006
 -5.6141800E-003  1.8886500E-002 -1.0012700E-005
 -5.4931500E-003  1.7985400E-002 -1.2001600E-005
 -5.3713900E-003  1.7085500E-002 -1.4284400E-005
 -5.2489700E-003  1.6187400E-002 -1.6862200E-005
 -5.1257800E-003  1.5291400E-002 -1.9733300E-005
 -5.0018500E-003  1.4398300E-002 -2.2893300E-005
 -4.8771800E-003  1.3508500E-002 -2.6334700E-005
 -4.7517900E-003  1.2622900E-002 -3.0047500E-005
 -4.6257500E-003  1.1742200E-002 -3.4018800E-005
 -4.4990900E-003  1.0867200E-002 -3.8232800E-005
 -4.3719300E-003  9.9987000E-003 -4.2671500E-005
 -4.2443400E-003  9.1376600E-003 -4.7314100E-005
 -4.1164700E-003  8.2850300E-003 -5.2137700E-005
 -3.9884200E-003  7.4417500E-003 -5.7117400E-005
 -3.8603600E-003  6.6088800E-003 -6.2226200E-005
 -3.7324500E-003  5.7873900E-003 -6.7435600E-005
 -3.6048400E-003  4.9783900E-003 -7.2715700E-005
 -3.4777200E-003  4.1828800E-003 -7.8035600E-005
 -3.3512600E-003  3.4019500E-003 -8.3363300E-005
 -3.2256600E-003  2.6366600E-003 -8.8666600E-005
 -3.1010800E-003  1.8880600E-003 -9.3913000E-005
 -2.9777300E-003  1.1571900E-003 -9.9070000E-005
 -2.8557600E-003  4.4503100E-004 -1.0410600E-004
 -2.7353600E-003 -2.4739600E-004 -1.0898800E-004
 -2.6166800E-003 -9.1919100E-004 -1.1368800E-004
 -2.4998700E-003 -1.5693900E-003 -1.1817600E-004
 -2.3850800E-003 -2.1971900E-003 -1.2242500E-004
 -2.2724200E-003 -2.8017200E-003 -1.2640800E-004
 -2.1620100E-003 -3.3822500E-003 -1.3010200E-004
 -2.0539300E-003 -3.9380800E-003 -1.3348500E-004
 -1.9482800E-003 -4.4685300E-003 -1.3653900E-004
 -1.8450900E-003 -4.9730700E-003 -1.3924600E-004
 -1.7444400E-003 -5.4511300E-003 -1.4159100E-004
 -1.6463300E-003 -5.9023100E-003 -1.4356300E-004
 -1.5507800E-003 -6.3261800E-003 -1.4515100E-004
 -1.4577800E-003 -6.7224700E-003 -1.4634900E-004
 -1.3673200E-003 -7.0908900E-003 -1.4715100E-004
 -1.2793700E-003 -7.4313000E-003 -1.4755600E-004
 -1.1938800E-003 -7.7435600E-003 -1.4756200E-004
 -1.1108100E-003 -8.0276500E-003 -1.4717200E-004
 -1.0300700E-003 -8.2835900E-003 -1.4638800E-004
 -9.5162900E-004 -8.5114500E-003 -1.4521700E-004
 -8.7538300E-004 -8.7114300E-003 -1.4366500E-004
 -8.0127900E-004 -8.8836700E-003 -1.4174000E-004
 -7.2922500E-004 -9.0285300E-003 -1.3945200E-004
 -6.5914500E-004 -9.1462800E-003 -1.3681300E-004
 -5.9097400E-004 -9.2373500E-003 -1.3383300E-004
 -5.2461500E-004 -9.3021800E-003 -1.3052600E-004
 -4.6003400E-004 -9.3412500E-003 -1.2690500E-004
 -3.9713000E-004 -9.3551800E-003 -1.2298400E-004
 -3.3588600E-004 -9.3444400E-003 -1.1877900E-004
 -2.7622500E-004 -9.3098800E-003 -1.1430300E-004
 -2.1812900E-004 -9.2519500E-003 -1.0957200E-004
 -1.6157100E-004 -9.1716800E-003 -1.0460200E-004
 -1.0651300E-004 -9.0695400E-003 -9.9408200E-005
 -5.3001000E-005 -8.9466900E-003 -9.4006300E-005
 -9.6632700E-007 -8.8036600E-003 -8.8412100E-005
  4.9468200E-005 -8.6416800E-003 -8.2640900E-005
  9.8390600E-005 -8.4613900E-003 -7.6708400E-005
  1.4562000E-004 -8.2640300E-003 -7.0629800E-005
  1.9124000E-004 -8.0503700E-003 -6.4420400E-005
  2.3503600E-004 -7.8216900E-003 -5.8095200E-005
  2.7706500E-004 -7.5788200E-003 -5.1669100E-005
  3.1710300E-004 -7.3231200E-003 -4.5157100E-005
  3.5516100E-004 -7.0554300E-003 -3.8573600E-005
  3.9102300E-004 -6.7772800E-003 -3.1933700E-005
  4.2465600E-004 -6.4893700E-003 -2.5251900E-005
  4.5583900E-004 -6.1935200E-003 -1.8543700E-005
  4.8452600E-004 -5.8902100E-003 -1.1824100E-005
  5.1046300E-004 -5.5816500E-003 -5.1095400E-006
  5.3363100E-004 -5.2679600E-003  1.5830300E-006
  5.5371300E-004 -4.9518300E-003  8.2354600E-006
  5.7075400E-004 -4.6329700E-003  1.4827600E-005
  5.8435600E-004 -4.3145700E-003  2.1337500E-005
  5.9464300E-004 -3.9958900E-003  2.7739700E-005
  6.0115300E-004 -3.6807100E-003  3.4005700E-005
  6.0405700E-004 -3.3677200E-003  4.0101300E-005
  6.0291000E-004 -3.0613800E-003  4.5987000E-005
  5.9782500E-004 -2.7596900E-003  5.1614700E-005
  5.8853300E-004 -2.4680000E-003  5.6926900E-005
  5.7489600E-004 -2.1833000E-003  6.1853400E-005
  5.5709300E-004 -1.9122200E-003  6.6308400E-005
  5.3439500E-004 -1.6502600E-003  7.0186600E-005
  5.0789800E-004 -1.4059200E-003  7.3357800E-005
  4.7567200E-004 -1.1724300E-003  7.5661800E-005
  4.4057000E-004 -9.6117400E-004  7.6898400E-005
  3.9834000E-004 -7.6186200E-004  7.6821000E-005
  3.5515100E-004 -5.9020500E-004  7.5117400E-005
  3.0226200E-004 -4.3068100E-004  7.1404100E-005
  2.5226700E-004 -3.0544200E-004  6.5180400E-005
  1.8764500E-004 -1.9171000E-004  5.5858100E-005
  1.3427500E-004 -1.1949100E-004  4.2612800E-005
  5.7639000E-005 -5.7828900E-005  2.4727500E-005
 -5.9874000E-003  2.4348800E-002 -3.5339800E-006
 -5.8686700E-003  2.3445600E-002 -3.8772700E-006
 -5.7500500E-003  2.2542200E-002 -4.4519400E-006
 -5.6309600E-003  2.1638900E-002 -5.2647600E-006
 -5.5116800E-003  2.0735700E-002 -6.3252900E-006
 -5.3919000E-003  1.9832900E-002 -7.6421300E-006
 -5.2717400E-003  1.8930600E-002 -9.2225700E-006
 -5.1510300E-003  1.8029100E-002 -1.1072300E-005
 -5.0298200E-003  1.7128800E-002 -1.3194600E-005
 -4.9080300E-003  1.6230200E-002 -1.5590600E-005
 -4.7856900E-003  1.5333700E-002 -1.8258900E-005
 -4.6628100E-003  1.4439900E-002 -2.1195400E-005
 -4.5394100E-003  1.3549400E-002 -2.4393500E-005
 -4.4155700E-003  1.2663000E-002 -2.7843800E-005
 -4.2913100E-003  1.1781400E-002 -3.1534500E-005
 -4.1667800E-003  1.0905300E-002 -3.5451300E-005
 -4.0420100E-003  1.0035700E-002 -3.9577200E-005
 -3.9172000E-003  9.1734100E-003 -4.3893400E-005
 -3.7924200E-003  8.3194400E-003 -4.8378500E-005
 -3.6678600E-003  7.4747300E-003 -5.3009500E-005
 -3.5436500E-003  6.6403100E-003 -5.7761400E-005
 -3.4199800E-003  5.8172100E-003 -6.2607900E-005
 -3.2970300E-003  5.0064700E-003 -6.7521100E-005
 -3.1749600E-003  4.2091800E-003 -7.2472200E-005
 -3.0539800E-003  3.4263700E-003 -7.7431500E-005
 -2.9342500E-003  2.6591600E-003 -8.2369200E-005
 -2.8159900E-003  1.9085800E-003 -8.7254700E-005
 -2.6993200E-003  1.1756700E-003 -9.2057800E-005
 -2.5844700E-003  4.6146300E-004 -9.6748600E-005
 -2.4715600E-003 -2.3305300E-004 -1.0129800E-004
 -2.3607500E-003 -9.0691600E-004 -1.0567700E-004
 -2.2521900E-003 -1.5592100E-003 -1.0985800E-004
 -2.1459800E-003 -2.1890500E-003 -1.1381700E-004
 -2.0422500E-003 -2.7956100E-003 -1.1752900E-004
 -1.9410600E-003 -3.3781300E-003 -1.2097000E-004
 -1.8425200E-003 -3.9358800E-003 -1.2412200E-004
 -1.7466400E-003 -4.4682100E-003 -1.2696500E-004
 -1.6535000E-003 -4.9745200E-003 -1.2948300E-004
 -1.5630700E-003 -5.4542900E-003 -1.3166400E-004
 -1.4753900E-003 -5.9070600E-003 -1.3349400E-004
 -1.3904200E-003 -6.3324400E-003 -1.3496500E-004
 -1.3081400E-003 -6.7301100E-003 -1.3607000E-004
 -1.2285000E-003 -7.0998200E-003 -1.3680500E-004
 -1.1514300E-003 -7.4413700E-003 -1.3716600E-004
 -1.0768800E-003 -7.7546700E-003 -1.3715300E-004
 -1.0047300E-003 -8.0396600E-003 -1.3676800E-004
 -9.3494600E-004 -8.2963700E-003 -1.3601400E-004
 -8.6738200E-004 -8.5248800E-003 -1.3489600E-004
 -8.0197000E-004 -8.7253600E-003 -1.3342000E-004
 -7.3859100E-004 -8.8980100E-003 -1.3159400E-004
 -6.7714100E-004 -9.0431200E-003 -1.2942800E-004
 -6.1753700E-004 -9.1610200E-003 -1.2693200E-004
 -5.5964000E-004 -9.2521200E-003 -1.2411700E-004
 -5.0340900E-004 -9.3168400E-003 -1.2099500E-004
 -4.4868600E-004 -9.3557500E-003 -1.1757900E-004
 -3.9546200E-004 -9.3693300E-003 -1.1388300E-004
 -3.4358900E-004 -9.3582700E-003 -1.0992100E-004
 -2.9306600E-004 -9.3231400E-003 -1.0570600E-004
 -2.4378700E-004 -9.2647500E-003 -1.0125400E-004
 -1.9573800E-004 -9.1837300E-003 -9.6579900E-005
 -1.4888400E-004 -9.0810100E-003 -9.1697900E-005
 -1.0318000E-004 -8.9572600E-003 -8.6623400E-005
 -5.8672000E-005 -8.8135400E-003 -8.1371300E-005
 -1.5288700E-005 -8.6505700E-003 -7.5956800E-005
  2.6852600E-005 -8.4695000E-003 -7.0394500E-005
  6.7826400E-005 -8.2710800E-003 -6.4699300E-005
  1.0747800E-004 -8.0566000E-003 -5.8885700E-005
  1.4584600E-004 -7.8268100E-003 -5.2968200E-005
  1.8278000E-004 -7.5831100E-003 -4.6961100E-005
  2.1824800E-004 -7.3262500E-003 -4.0878400E-005
  2.5213400E-004 -7.0578000E-003 -3.4734500E-005
  2.8431700E-004 -6.7784100E-003 -2.8543200E-005
  3.1473200E-004 -6.4898600E-003 -2.2318800E-005
  3.4317200E-004 -6.1926900E-003 -1.6075600E-005
  3.6961200E-004 -5.8889300E-003 -9.8282100E-006
  3.9378600E-004 -5.5789400E-003 -3.5918900E-006
  4.1568900E-004 -5.2650400E-003  2.6173300E-006
  4.3502900E-004 -4.9473400E-003  8.7822200E-006