# vtk DataFile Version 3.0
MMH: CalculiX output 'object.frd' file to 'vtk' format
ASCII
DATASET UNSTRUCTURED_GRID
POINTS 3232 double
 6.00000000E-001 2.10000000E-001 0.00000000E+000
 6.00000000E-001 2.08667000E-001 0.00000000E+000
 6.00000000E-001 2.07333000E-001 0.00000000E+000
 6.00000000E-001 2.06000000E-001 0.00000000E+000
 6.00000000E-001 2.04667000E-001 0.00000000E+000
 6.00000000E-001 2.03333000E-001 0.00000000E+000
 6.00000000E-001 2.02000000E-001 0.00000000E+000
 6.00000000E-001 2.00667000E-001 0.00000000E+000
 6.00000000E-001 1.99333000E-001 0.00000000E+000
 6.00000000E-001 1.98000000E-001 0.00000000E+000
 6.00000000E-001 1.96667000E-001 0.00000000E+000
 6.00000000E-001 1.95333000E-001 0.00000000E+000
 6.00000000E-001 1.94000000E-001 0.00000000E+000
 6.00000000E-001 1.92667000E-001 0.00000000E+000
 6.00000000E-001 1.91333000E-001 0.00000000E+000
 6.00000000E-001 1.90000000E-001 0.00000000E+000
 5.96490000E-001 1.90000000E-001 0.00000000E+000
 5.92980000E-001 1.90000000E-001 0.00000000E+000
 5.89470000E-001 1.90000000E-001 0.00000000E+000
 5.85960000E-001 1.90000000E-001 0.00000000E+000
 5.82449000E-001 1.90000000E-001 0.00000000E+000
 5.78939000E-001 1.90000000E-001 0.00000000E+000
 5.75429000E-001 1.90000000E-001 0.00000000E+000
 5.71919000E-001 1.90000000E-001 0.00000000E+000
 5.68409000E-001 1.90000000E-001 0.00000000E+000
 5.64899000E-001 1.90000000E-001 0.00000000E+000
 5.61389000E-001 1.90000000E-001 0.00000000E+000
 5.57879000E-001 1.90000000E-001 0.00000000E+000
 5.54369000E-001 1.90000000E-001 0.00000000E+000
 5.50859000E-001 1.90000000E-001 0.00000000E+000
 5.47348000E-001 1.90000000E-001 0.00000000E+000
 5.43838000E-001 1.90000000E-001 0.00000000E+000
 5.40328000E-001 1.90000000E-001 0.00000000E+000
 5.36818000E-001 1.90000000E-001 0.00000000E+000
 5.33308000E-001 1.90000000E-001 0.00000000E+000
 5.29798000E-001 1.90000000E-001 0.00000000E+000
 5.26288000E-001 1.90000000E-001 0.00000000E+000
 5.22778000E-001 1.90000000E-001 0.00000000E+000
 5.19268000E-001 1.90000000E-001 0.00000000E+000
 5.15758000E-001 1.90000000E-001 0.00000000E+000
 5.12247000E-001 1.90000000E-001 0.00000000E+000
 5.08737000E-001 1.90000000E-001 0.00000000E+000
 5.05227000E-001 1.90000000E-001 0.00000000E+000
 5.01717000E-001 1.90000000E-001 0.00000000E+000
 4.98207000E-001 1.90000000E-001 0.00000000E+000
 4.94697000E-001 1.90000000E-001 0.00000000E+000
 4.91187000E-001 1.90000000E-001 0.00000000E+000
 4.87677000E-001 1.90000000E-001 0.00000000E+000
 4.84167000E-001 1.90000000E-001 0.00000000E+000
 4.80657000E-001 1.90000000E-001 0.00000000E+000
 4.77146000E-001 1.90000000E-001 0.00000000E+000
 4.73636000E-001 1.90000000E-001 0.00000000E+000
 4.70126000E-001 1.90000000E-001 0.00000000E+000
 4.66616000E-001 1.90000000E-001 0.00000000E+000
 4.63106000E-001 1.90000000E-001 0.00000000E+000
 4.59596000E-001 1.90000000E-001 0.00000000E+000
 4.56086000E-001 1.90000000E-001 0.00000000E+000
 4.52576000E-001 1.90000000E-001 0.00000000E+000
 4.49066000E-001 1.90000000E-001 0.00000000E+000
 4.45556000E-001 1.90000000E-001 0.00000000E+000
 4.42045000E-001 1.90000000E-001 0.00000000E+000
 4.38535000E-001 1.90000000E-001 0.00000000E+000
 4.35025000E-001 1.90000000E-001 0.00000000E+000
 4.31515000E-001 1.90000000E-001 0.00000000E+000
 4.28005000E-001 1.90000000E-001 0.00000000E+000
 4.24495000E-001 1.90000000E-001 0.00000000E+000
 4.20985000E-001 1.90000000E-001 0.00000000E+000
 4.17475000E-001 1.90000000E-001 0.00000000E+000
 4.13965000E-001 1.90000000E-001 0.00000000E+000
 4.10455000E-001 1.90000000E-001 0.00000000E+000
 4.06944000E-001 1.90000000E-001 0.00000000E+000
 4.03434000E-001 1.90000000E-001 0.00000000E+000
 3.99924000E-001 1.90000000E-001 0.00000000E+000
 3.96414000E-001 1.90000000E-001 0.00000000E+000
 3.92904000E-001 1.90000000E-001 0.00000000E+000
 3.89394000E-001 1.90000000E-001 0.00000000E+000
 3.85884000E-001 1.90000000E-001 0.00000000E+000
 3.82374000E-001 1.90000000E-001 0.00000000E+000
 3.78864000E-001 1.90000000E-001 0.00000000E+000
 3.75353000E-001 1.90000000E-001 0.00000000E+000
 3.71843000E-001 1.90000000E-001 0.00000000E+000
 3.68333000E-001 1.90000000E-001 0.00000000E+000
 3.64823000E-001 1.90000000E-001 0.00000000E+000
 3.61313000E-001 1.90000000E-001 0.00000000E+000
 3.57803000E-001 1.90000000E-001 0.00000000E+000
 3.54293000E-001 1.90000000E-001 0.00000000E+000
 3.50783000E-001 1.90000000E-001 0.00000000E+000
 3.47273000E-001 1.90000000E-001 0.00000000E+000
 3.43763000E-001 1.90000000E-001 0.00000000E+000
 3.40252000E-001 1.90000000E-001 0.00000000E+000
 3.36742000E-001 1.90000000E-001 0.00000000E+000
 3.33232000E-001 1.90000000E-001 0.00000000E+000
 3.29722000E-001 1.90000000E-001 0.00000000E+000
 3.26212000E-001 1.90000000E-001 0.00000000E+000
 3.22702000E-001 1.90000000E-001 0.00000000E+000
 3.19192000E-001 1.90000000E-001 0.00000000E+000
 3.15682000E-001 1.90000000E-001 0.00000000E+000
 3.12172000E-001 1.90000000E-001 0.00000000E+000
 3.08661000E-001 1.90000000E-001 0.00000000E+000
 3.05151000E-001 1.90000000E-001 0.00000000E+000
 3.01641000E-001 1.90000000E-001 0.00000000E+000
 2.98131000E-001 1.90000000E-001 0.00000000E+000
 2.94621000E-001 1.90000000E-001 0.00000000E+000
 2.91111000E-001 1.90000000E-001 0.00000000E+000
 2.87601000E-001 1.90000000E-001 0.00000000E+000
 2.84091000E-001 1.90000000E-001 0.00000000E+000
 2.80581000E-001 1.90000000E-001 0.00000000E+000
 2.77071000E-001 1.90000000E-001 0.00000000E+000
 2.73560000E-001 1.90000000E-001 0.00000000E+000
 2.70050000E-001 1.90000000E-001 0.00000000E+000
 2.66540000E-001 1.90000000E-001 0.00000000E+000
 2.63030000E-001 1.90000000E-001 0.00000000E+000
 2.59520000E-001 1.90000000E-001 0.00000000E+000
 2.56010000E-001 1.90000000E-001 0.00000000E+000
 2.52500000E-001 1.90000000E-001 0.00000000E+000
 2.48990000E-001 1.90000000E-001 0.00000000E+000
 2.48990000E-001 1.91333000E-001 0.00000000E+000
 2.48990000E-001 1.92667000E-001 0.00000000E+000
 2.48990000E-001 1.94000000E-001 0.00000000E+000
 2.48990000E-001 1.95333000E-001 0.00000000E+000
 2.48990000E-001 1.96667000E-001 0.00000000E+000
 2.48990000E-001 1.98000000E-001 0.00000000E+000
 2.48990000E-001 1.99333000E-001 0.00000000E+000
 2.48990000E-001 2.00667000E-001 0.00000000E+000
 2.48990000E-001 2.02000000E-001 0.00000000E+000
 2.48990000E-001 2.03333000E-001 0.00000000E+000
 2.48990000E-001 2.04667000E-001 0.00000000E+000
 2.48990000E-001 2.06000000E-001 0.00000000E+000
 2.48990000E-001 2.07333000E-001 0.00000000E+000
 2.48990000E-001 2.08667000E-001 0.00000000E+000
 2.48990000E-001 2.10000000E-001 0.00000000E+000
 2.52500000E-001 2.10000000E-001 0.00000000E+000
 2.56010000E-001 2.10000000E-001 0.00000000E+000
 2.59520000E-001 2.10000000E-001 0.00000000E+000
 2.63030000E-001 2.10000000E-001 0.00000000E+000
 2.66540000E-001 2.10000000E-001 0.00000000E+000
 2.70050000E-001 2.10000000E-001 0.00000000E+000
 2.73560000E-001 2.10000000E-001 0.00000000E+000
 2.77071000E-001 2.10000000E-001 0.00000000E+000
 2.80581000E-001 2.10000000E-001 0.00000000E+000
 2.84091000E-001 2.10000000E-001 0.00000000E+000
 2.87601000E-001 2.10000000E-001 0.00000000E+000
 2.91111000E-001 2.10000000E-001 0.00000000E+000
 2.94621000E-001 2.10000000E-001 0.00000000E+000
 2.98131000E-001 2.10000000E-001 0.00000000E+000
 3.01641000E-001 2.10000000E-001 0.00000000E+000
 3.05151000E-001 2.10000000E-001 0.00000000E+000
 3.08661000E-001 2.10000000E-001 0.00000000E+000
 3.12172000E-001 2.10000000E-001 0.00000000E+000
 3.15682000E-001 2.10000000E-001 0.00000000E+000
 3.19192000E-001 2.10000000E-001 0.00000000E+000
 3.22702000E-001 2.10000000E-001 0.00000000E+000
 3.26212000E-001 2.10000000E-001 0.00000000E+000
 3.29722000E-001 2.10000000E-001 0.00000000E+000
 3.33232000E-001 2.10000000E-001 0.00000000E+000
 3.36742000E-001 2.10000000E-001 0.00000000E+000
 3.40252000E-001 2.10000000E-001 0.00000000E+000
 3.43763000E-001 2.10000000E-001 0.00000000E+000
 3.47273000E-001 2.10000000E-001 0.00000000E+000
 3.50783000E-001 2.10000000E-001 0.00000000E+000
 3.54293000E-001 2.10000000E-001 0.00000000E+000
 3.57803000E-001 2.10000000E-001 0.00000000E+000
 3.61313000E-001 2.10000000E-001 0.00000000E+000
 3.64823000E-001 2.10000000E-001 0.00000000E+000
 3.68333000E-001 2.10000000E-001 0.00000000E+000
 3.71843000E-001 2.10000000E-001 0.00000000E+000
 3.75353000E-001 2.10000000E-001 0.00000000E+000
 3.78864000E-001 2.10000000E-001 0.00000000E+000
 3.82374000E-001 2.10000000E-001 0.00000000E+000
 3.85884000E-001 2.10000000E-001 0.00000000E+000
 3.89394000E-001 2.10000000E-001 0.00000000E+000
 3.92904000E-001 2.10000000E-001 0.00000000E+000
 3.96414000E-001 2.10000000E-001 0.00000000E+000
 3.99924000E-001 2.10000000E-001 0.00000000E+000
 4.03434000E-001 2.10000000E-001 0.00000000E+000
 4.06944000E-001 2.10000000E-001 0.00000000E+000
 4.10455000E-001 2.10000000E-001 0.00000000E+000
 4.13965000E-001 2.10000000E-001 0.00000000E+000
 4.17475000E-001 2.10000000E-001 0.00000000E+000
 4.20985000E-001 2.10000000E-001 0.00000000E+000
 4.24495000E-001 2.10000000E-001 0.00000000E+000
 4.28005000E-001 2.10000000E-001 0.00000000E+000
 4.31515000E-001 2.10000000E-001 0.00000000E+000
 4.35025000E-001 2.10000000E-001 0.00000000E+000
 4.38535000E-001 2.10000000E-001 0.00000000E+000
 4.42045000E-001 2.10000000E-001 0.00000000E+000
 4.45556000E-001 2.10000000E-001 0.00000000E+000
 4.49066000E-001 2.10000000E-001 0.00000000E+000
 4.52576000E-001 2.10000000E-001 0.00000000E+000
 4.56086000E-001 2.10000000E-001 0.00000000E+000
 4.59596000E-001 2.10000000E-001 0.00000000E+000
 4.63106000E-001 2.10000000E-001 0.00000000E+000
 4.66616000E-001 2.10000000E-001 0.00000000E+000
 4.70126000E-001 2.10000000E-001 0.00000000E+000
 4.73636000E-001 2.10000000E-001 0.00000000E+000
 4.77146000E-001 2.10000000E-001 0.00000000E+000
 4.80657000E-001 2.10000000E-001 0.00000000E+000
 4.84167000E-001 2.10000000E-001 0.00000000E+000
 4.87677000E-001 2.10000000E-001 0.00000000E+000
 4.91187000E-001 2.10000000E-001 0.00000000E+000
 4.94697000E-001 2.10000000E-001 0.00000000E+000
[...]
POINT_DATA 3232
VECTORS DISP double
  2.3465000E-004 -1.7328600E-002  9.3711100E-005
  1.4495600E-004 -1.7325700E-002  9.3727000E-005
  5.4000500E-005 -1.7322500E-002  9.3763200E-005
 -3.6228800E-005 -1.7319400E-002  9.3819500E-005
 -1.2681400E-004 -1.7316200E-002  9.3900800E-005
 -2.1717300E-004 -1.7313100E-002  9.4003600E-005
 -3.0758700E-004 -1.7310000E-002  9.4125700E-005
 -3.9798700E-004 -1.7306900E-002  9.4261900E-005
 -4.8834000E-004 -1.7303700E-002  9.4408700E-005
 -5.7870200E-004 -1.7300600E-002  9.4561800E-005
 -6.6894200E-004 -1.7297500E-002  9.4715000E-005
 -7.5937400E-004 -1.7294400E-002  9.4865800E-005
 -8.4927800E-004 -1.7291300E-002  9.5006700E-005
 -9.3994900E-004 -1.7288400E-002  9.5137200E-005
 -1.0288100E-003 -1.7285200E-002  9.5233400E-005
 -1.1210100E-003 -1.7284000E-002  9.5264600E-005
 -1.1128500E-003 -1.7042100E-002  9.5251500E-005
 -1.1073200E-003 -1.6805800E-002  9.5292000E-005
 -1.0999300E-003 -1.6565400E-002  9.5430100E-005
 -1.0935900E-003 -1.6328300E-002  9.5672500E-005
 -1.0865600E-003 -1.6088800E-002  9.6034700E-005
 -1.0801200E-003 -1.5851400E-002  9.6512300E-005
 -1.0734600E-003 -1.5612400E-002  9.7107700E-005
 -1.0672500E-003 -1.5374800E-002  9.7811300E-005
 -1.0610500E-003 -1.5135900E-002  9.8616700E-005
 -1.0552800E-003 -1.4897700E-002  9.9510000E-005
 -1.0496500E-003 -1.4658400E-002  1.0047900E-004
 -1.0444400E-003 -1.4419200E-002  1.0150600E-004
 -1.0394300E-003 -1.4178900E-002  1.0257500E-004
 -1.0348100E-003 -1.3938200E-002  1.0366700E-004
 -1.0304100E-003 -1.3696100E-002  1.0476400E-004
 -1.0263500E-003 -1.3453300E-002  1.0584800E-004
 -1.0224500E-003 -1.3208900E-002  1.0690000E-004
 -1.0188100E-003 -1.2963400E-002  1.0790200E-004
 -1.0152500E-003 -1.2716000E-002  1.0883900E-004
 -1.0118400E-003 -1.2467400E-002  1.0969400E-004
 -1.0083800E-003 -1.2216800E-002  1.1045400E-004
 -1.0049400E-003 -1.1964700E-002  1.1110800E-004
 -1.0013200E-003 -1.1710600E-002  1.1164300E-004
 -9.9756100E-004 -1.1454900E-002  1.1205400E-004
 -9.9347400E-004 -1.1197400E-002  1.1233300E-004
 -9.8909300E-004 -1.0938300E-002  1.1247500E-004
 -9.8424500E-004 -1.0677600E-002  1.1247900E-004
 -9.7893900E-004 -1.0415400E-002  1.1234400E-004
 -9.7304900E-004 -1.0152100E-002  1.1207300E-004
 -9.6654600E-004 -9.8875200E-003  1.1166600E-004
 -9.5936400E-004 -9.6222700E-003  1.1113200E-004
 -9.5143900E-004 -9.3562300E-003  1.1047400E-004
 -9.4276200E-004 -9.0899900E-003  1.0970300E-004
 -9.3325000E-004 -8.8236000E-003  1.0882500E-004
 -9.2293000E-004 -8.5575100E-003  1.0785100E-004
 -9.1173300E-004 -8.2920200E-003  1.0679300E-004
 -8.9969300E-004 -8.0273900E-003  1.0566100E-004
 -8.8677900E-004 -7.7641600E-003  1.0446700E-004
 -8.7301400E-004 -7.5024100E-003  1.0322400E-004
 -8.5842000E-004 -7.2428500E-003  1.0194300E-004
 -8.4299700E-004 -6.9854500E-003  1.0063600E-004
 -8.2682300E-004 -6.7309500E-003  9.9316400E-005
 -8.0987800E-004 -6.4793600E-003  9.7993800E-005
 -7.9227800E-004 -6.2313000E-003  9.6679900E-005
 -7.7400300E-004 -5.9869200E-003  9.5384400E-005
 -7.5518200E-004 -5.7465900E-003  9.4116600E-005
 -7.3581400E-004 -5.5106800E-003  9.2885000E-005
 -7.1601500E-004 -5.2792900E-003  9.1696300E-005
 -6.9582100E-004 -5.0529500E-003  9.0557400E-005
 -6.7531500E-004 -4.8315400E-003  8.9472400E-005
 -6.5457900E-004 -4.6156700E-003  8.8446100E-005
 -6.3365500E-004 -4.4051300E-003  8.7480000E-005
 -6.1266200E-004 -4.2004100E-003  8.6576400E-005
 -5.9161200E-004 -4.0014000E-003  8.5734700E-005
 -5.7064000E-004 -3.8083600E-003  8.4954300E-005
 -5.4974800E-004 -3.6213100E-003  8.4232600E-005
 -5.2905600E-004 -3.4402400E-003  8.3566100E-005
 -5.0858500E-004 -3.2653700E-003  8.2950900E-005
 -4.8841400E-004 -3.0963900E-003  8.2380500E-005
 -4.6859600E-004 -2.9336800E-003  8.1849700E-005
 -4.4915500E-004 -2.7767500E-003  8.1349600E-005
 -4.3018800E-004 -2.6259700E-003  8.0873700E-005
 -4.1165800E-004 -2.4808900E-003  8.0411700E-005
 -3.9369500E-004 -2.3416600E-003  7.9955300E-005
 -3.7622100E-004 -2.2080400E-003  7.9493800E-005
 -3.5937400E-004 -2.0798700E-003  7.9016900E-005
 -3.4306300E-004 -1.9572000E-003  7.8514000E-005
 -3.2740300E-004 -1.8395000E-003  7.7973100E-005
 -3.1231900E-004 -1.7271300E-003  7.7383900E-005
 -2.9787900E-004 -1.6192800E-003  7.6733500E-005
 -2.8404400E-004 -1.5164700E-003  7.6011600E-005
 -2.7082200E-004 -1.4178200E-003  7.5205000E-005
 -2.5820900E-004 -1.3238100E-003  7.4303400E-005
 -2.4617200E-004 -1.2336700E-003  7.3294400E-005
 -2.3471500E-004 -1.1476900E-003  7.2167200E-005
 -2.2379400E-004 -1.0653900E-003  7.0910700E-005
 -2.1338800E-004 -9.8676000E-004  6.9513700E-005
 -2.0348000E-004 -9.1161700E-004  6.7967000E-005
 -1.9398700E-004 -8.3972100E-004  6.6259500E-005
 -1.8495600E-004 -7.7109500E-004  6.4384200E-005
 -1.7621000E-004 -7.0544900E-004  6.2330600E-005
 -1.6788200E-004 -6.4277000E-004  6.0094100E-005
 -1.5969800E-004 -5.8301300E-004  5.7666700E-005
 -1.5186200E-004 -5.2583500E-004  5.5045900E-005
 -1.4403400E-004 -4.7171500E-004  5.2227800E-005
 -1.3644800E-004 -4.1976100E-004  4.9213400E-005
 -1.2875000E-004 -3.7115400E-004  4.6004500E-005
 -1.2114400E-004 -3.2433800E-004  4.2607300E-005
 -1.1333400E-004 -2.8125800E-004  3.9032100E-005
 -1.0540800E-004 -2.3970000E-004  3.5294100E-005
 -9.7234400E-005 -2.0233400E-004  3.1414800E-005
 -8.8657400E-005 -1.6634900E-004  2.7424800E-005
 -7.9867800E-005 -1.3510500E-004  2.3361900E-005
 -7.0257400E-005 -1.0516600E-004  1.9281900E-005
 -6.0639200E-005 -8.0760500E-005  1.5246600E-005
 -4.9507000E-005 -5.7427100E-005  1.1355500E-005
 -3.9049900E-005 -4.1078000E-005  7.7038000E-006
 -2.5856400E-005 -2.4610100E-005  4.4695900E-006
 -1.5946100E-005 -1.8155100E-005  1.7615900E-006
  0.0000000E+000  0.0000000E+000  0.0000000E+000
  0.0000000E+000  0.0000000E+000  0.0000000E+000
  0.0000000E+000  0.0000000E+000  0.0000000E+000
  0.0000000E+000  0.0000000E+000  0.0000000E+000
  0.0000000E+000  0.0000000E+000  0.0000000E+000
  0.0000000E+000  0.0000000E+000  0.0000000E+000
  0.0000000E+000  0.0000000E+000  0.0000000E+000
  0.0000000E+000  0.0000000E+000  0.0000000E+000
  0.0000000E+000  0.0000000E+000  0.0000000E+000
  0.0000000E+000  0.0000000E+000  0.0000000E+000
  0.0000000E+000  0.0000000E+000  0.0000000E+000
  0.0000000E+000  0.0000000E+000  0.0000000E+000
  0.0000000E+000  0.0000000E+000  0.0000000E+000
  0.0000000E+000  0.0000000E+000  0.0000000E+000
  0.0000000E+000  0.0000000E+000  0.0000000E+000
  0.0000000E+000  0.0000000E+000  0.0000000E+000
  1.6658600E-005 -1.6747000E-005  1.0264000E-005
  2.8092800E-005 -2.3364400E-005  1.9100700E-005
  4.2301300E-005 -3.9570700E-005  2.6931500E-005
  5.4075500E-005 -5.6092500E-005  3.3892400E-005
  6.6249000E-005 -7.9293300E-005  4.0172700E-005
  7.7067500E-005 -1.0400900E-004  4.5886700E-005
  8.7709200E-005 -1.3374000E-004  5.1147800E-005
  9.7607900E-005 -1.6543200E-004  5.6031500E-005
  1.0719300E-004 -2.0114200E-004  6.0608800E-005
  1.1637300E-004 -2.3903100E-004  6.4928000E-005
  1.2527100E-004 -2.8033600E-004  6.9035300E-005
  1.3396900E-004 -3.2390800E-004  7.2961400E-005
  1.4248600E-004 -3.7060300E-004  7.6736000E-005
  1.5095000E-004 -4.1957600E-004  8.0378600E-005
  1.5935100E-004 -4.7162100E-004  8.3907500E-005
  1.6781800E-004 -5.2594200E-004  8.7334800E-005
  1.7633000E-004 -5.8344100E-004  9.0670800E-005
  1.8501700E-004 -6.4326400E-004  9.3922800E-005
  1.9383500E-004 -7.0645400E-004  9.7095400E-005
  2.0292900E-004 -7.7211900E-004  1.0019200E-004
  2.1221400E-004 -8.4135100E-004  1.0321400E-004
  2.2186200E-004 -9.1335700E-004  1.0616300E-004
  2.3174600E-004 -9.8909200E-004  1.0903500E-004
  2.4205100E-004 -1.0680400E-003  1.1183100E-004
  2.5262800E-004 -1.1508600E-003  1.1454600E-004
  2.6365000E-004 -1.2374200E-003  1.1717800E-004
  2.7497200E-004 -1.3279900E-003  1.1972100E-004
  2.8672500E-004 -1.4228600E-003  1.2217200E-004
  2.9879800E-004 -1.5219400E-003  1.2452500E-004
  3.1125200E-004 -1.6258100E-003  1.2677400E-004
  3.2403200E-004 -1.7341800E-003  1.2891500E-004
  3.3711400E-004 -1.8477300E-003  1.3093900E-004
  3.5050000E-004 -1.9661800E-003  1.3284200E-004
  3.6409800E-004 -2.0900500E-003  1.3461700E-004
  3.7793900E-004 -2.2192900E-003  1.3625800E-004
  3.9189700E-004 -2.3540800E-003  1.3775900E-004
  4.0599400E-004 -2.4947200E-003  1.3911400E-004
  4.2011200E-004 -2.6409700E-003  1.4031800E-004
  4.3422700E-004 -2.7934600E-003  1.4136400E-004
  4.4826600E-004 -2.9516100E-003  1.4225100E-004
  4.6213200E-004 -3.1162100E-003  1.4297000E-004
  4.7581300E-004 -3.2865900E-003  1.4352200E-004
  4.8914700E-004 -3.4634000E-003  1.4390200E-004
  5.0216400E-004 -3.6461200E-003  1.4411000E-004
  5.1467100E-004 -3.8350600E-003  1.4414300E-004
  5.2670500E-004 -4.0300100E-003  1.4400300E-004
  5.3808800E-004 -4.2308100E-003  1.4369100E-004
  5.4882600E-004 -4.4376300E-003  1.4320800E-004
  5.5879300E-004 -4.6498600E-003  1.4256000E-004
  5.6794200E-004 -4.8679200E-003  1.4175000E-004
  5.7622400E-004 -5.0909600E-003  1.4078600E-004
  5.8353000E-004 -5.3194100E-003  1.3967300E-004
  5.8988400E-004 -5.5524200E-003  1.3842000E-004
  5.9514700E-004 -5.7902100E-003  1.3703800E-004
  5.9938000E-004 -6.0321500E-003  1.3553700E-004
  6.0245500E-004 -6.2781000E-003  1.3392800E-004
  6.0443500E-004 -6.5277300E-003  1.3222500E-004
  6.0524100E-004 -6.7805300E-003  1.3044000E-004
  6.0491200E-004 -7.0364700E-003  1.2858800E-004
  6.0343600E-004 -7.2947700E-003  1.2668300E-004
  6.0081800E-004 -7.5555200E-003  1.2473900E-004
  5.9711600E-004 -7.8179100E-003  1.2277200E-004
  5.9231200E-004 -8.0819900E-003  1.2079700E-004
  5.8650900E-004 -8.3470500E-003  1.1882900E-004
  5.7969300E-004 -8.6130000E-003  1.1688100E-004
  5.7198300E-004 -8.8793500E-003  1.1496700E-004
  5.6339100E-004 -9.1458200E-003  1.1310100E-004
  5.5403100E-004 -9.4121700E-003  1.1129500E-004
  5.4395200E-004 -9.6779700E-003  1.0956000E-004
  5.3324800E-004 -9.9431800E-003  1.0790500E-004
  5.2200800E-004 -1.0207300E-002  1.0634100E-004
  5.1030200E-004 -1.0470400E-002  1.0487300E-004
  4.9824900E-004 -1.0732000E-002  1.0350700E-004
  4.8590500E-004 -1.0992300E-002  1.0224900E-004
  4.7339400E-004 -1.1250900E-002  1.0110000E-004
  4.6077100E-004 -1.1507800E-002  1.0006200E-004
  4.4814800E-004 -1.1763000E-002  9.9134700E-005
  4.3558600E-004 -1.2016500E-002  9.8315100E-005
  4.2316800E-004 -1.2268200E-002  9.7599800E-005
  4.1096500E-004 -1.2518100E-002  9.6984200E-005
  3.9902400E-004 -1.2766500E-002  9.6461400E-005
  3.8742200E-004 -1.3013200E-002  9.6024600E-005
  3.7616800E-004 -1.3258500E-002  9.5664800E-005
  3.6533500E-004 -1.3502400E-002  9.5373300E-005
  3.5490300E-004 -1.3745100E-002  9.5140100E-005
  3.4492700E-004 -1.3986800E-002  9.4955100E-005
  3.3536700E-004 -1.4227500E-002  9.4808600E-005
  3.2624500E-004 -1.4467500E-002  9.4690400E-005
  3.1751900E-004 -1.4706900E-002  9.4591900E-005
  3.0916400E-004 -1.4945800E-002  9.4504300E-005
  3.0115000E-004 -1.5184300E-002  9.4421300E-005
  2.9339100E-004 -1.5422700E-002  9.4337000E-005
  2.8590000E-004 -1.5661000E-002  9.4248500E-005
  2.7850000E-004 -1.5899100E-002  9.4154500E-005
  2.7130800E-004 -1.6137400E-002  9.4056900E-005
  2.6399000E-004 -1.6375500E-002  9.3959700E-005
  2.5692700E-004 -1.6613900E-002  9.3869000E-005
  2.4944600E-004 -1.6851900E-002  9.3792900E-005
  2.4261300E-004 -1.7090500E-002  9.3735000E-005
  1.5162900E-004 -1.7087300E-002  9.3748200E-005
  1.5926700E-004 -1.6849000E-002  9.3805200E-005
  1.6627800E-004 -1.6610800E-002  9.3883900E-005
  1.7362600E-004 -1.6372500E-002  9.3976800E-005
  1.8076600E-004 -1.6134300E-002  9.4077900E-005
  1.8806000E-004 -1.5896100E-002  9.4180500E-005
  1.9537600E-004 -1.5657900E-002  9.4281100E-005
  2.0285600E-004 -1.5419700E-002  9.4377700E-005
  2.1051700E-004 -1.5181400E-002  9.4471600E-005
  2.1841700E-004 -1.4942900E-002  9.4565500E-005
  2.2660300E-004 -1.4704100E-002  9.4664900E-005
  2.3510500E-004 -1.4464700E-002  9.4776100E-005
  2.4395500E-004 -1.4224800E-002  9.4907100E-005
  2.5317500E-004 -1.3984200E-002  9.5066500E-005
  2.6276900E-004 -1.3742600E-002  9.5264000E-005
  2.7274900E-004 -1.3499900E-002  9.5508900E-005
  2.8309500E-004 -1.3256000E-002  9.5811000E-005
  2.9379800E-004 -1.3010800E-002  9.6179700E-005
  3.0482800E-004 -1.2764000E-002  9.6623700E-005
  3.1614500E-004 -1.2515700E-002  9.7151300E-005
  3.2772000E-004 -1.2265700E-002  9.7769600E-005
  3.3947700E-004 -1.2014000E-002  9.8484600E-005
  3.5139100E-004 -1.1760500E-002  9.9301200E-005
  3.6335900E-004 -1.1505300E-002  1.0022300E-004
  3.7535700E-004 -1.1248200E-002  1.0125100E-004
  3.8726400E-004 -1.0989500E-002  1.0238700E-004
  3.9905100E-004 -1.0729200E-002  1.0363000E-004
  4.1060100E-004 -1.0467400E-002  1.0497600E-004
  4.2186300E-004 -1.0204200E-002  1.0642200E-004
  4.3274500E-004 -9.9398400E-003  1.0796200E-004
  4.4316500E-004 -9.6745600E-003  1.0958800E-004
  4.5306900E-004 -9.4085100E-003  1.1129300E-004
  4.6234600E-004 -9.1420300E-003  1.1306600E-004
  4.7098000E-004 -8.8753600E-003  1.1489700E-004
  4.7884100E-004 -8.6088100E-003  1.1677300E-004
  4.8593900E-004 -8.3427300E-003  1.1868200E-004
  4.9215400E-004 -8.0774000E-003  1.2061100E-004
  4.9749800E-004 -7.8132800E-003  1.2254500E-004
  5.0188600E-004 -7.5505700E-003  1.2447100E-004
  5.0531000E-004 -7.2898300E-003  1.2637300E-004
  5.0774800E-004 -7.0312100E-003  1.2823700E-004
  5.0915100E-004 -6.7752900E-003  1.3004800E-004
  5.0957300E-004 -6.5222600E-003  1.3179300E-004
  5.0892800E-004 -6.2725800E-003  1.3345800E-004
  5.0732600E-004 -6.0265500E-003  1.3502900E-004
  5.0467500E-004 -5.7844600E-003  1.3649400E-004
  5.0110300E-004 -5.5467500E-003  1.3784300E-004
  4.9655100E-004 -5.3135100E-003  1.3906400E-004
  4.9112400E-004 -5.0852600E-003  1.4014800E-004
  4.8483000E-004 -4.8619700E-003  1.4108700E-004
  4.7771700E-004 -4.6441600E-003  1.4187300E-004
  4.6988100E-004 -4.4317400E-003  1.4250100E-004
  4.6130100E-004 -4.2251300E-003  1.4296500E-004
  4.5214900E-004 -4.0242900E-003  1.4326300E-004
  4.4236000E-004 -3.8294300E-003  1.4339100E-004
  4.3213700E-004 -3.6406300E-003  1.4334900E-004
  4.2141600E-004 -3.4578800E-003  1.4313700E-004
  4.1037900E-004 -3.2813700E-003  1.4275400E-004
  3.9900700E-004 -3.1108700E-003  1.4220200E-004
  3.8741500E-004 -2.9466700E-003  1.4148500E-004
  3.7566100E-004 -2.7883800E-003  1.4060400E-004
  3.6376700E-004 -2.6362800E-003  1.3956500E-004
  3.5187400E-004 -2.4899800E-003  1.3837200E-004
  3.3992200E-004 -2.3496300E-003  1.3702900E-004
  3.2809800E-004 -2.2149300E-003  1.3554200E-004
  3.1630600E-004 -2.0858500E-003  1.3391600E-004
  3.0472800E-004 -1.9622100E-003  1.3215800E-004
  2.9327700E-004 -1.8438100E-003  1.3027200E-004
  2.8208600E-004 -1.7305800E-003  1.2826700E-004
  2.7111700E-004 -1.6221900E-003  1.2614600E-004
  2.6041900E-004 -1.5186500E-003  1.2391600E-004
  2.5002100E-004 -1.4195900E-003  1.2158400E-004
  2.3988900E-004 -1.3249600E-003  1.1915300E-004
  2.3010300E-004 -1.2345100E-003  1.1662900E-004
  2.2057300E-004 -1.1480300E-003  1.1401700E-004
  2.1139500E-004 -1.0654800E-003  1.1132100E-004
  2.0246600E-004 -9.8644600E-004  1.0854300E-004
  1.9385100E-004 -9.1110700E-004  1.0568800E-004
  1.8547800E-004 -8.3886700E-004  1.0275600E-004
  1.7734800E-004 -7.7011600E-004  9.9748200E-005
  1.6944500E-004 -7.0412000E-004  9.6664700E-005
  1.6169200E-004 -6.4142800E-004  9.3503900E-005
  1.5412900E-004 -5.8123800E-004  9.0262300E-005
  1.4662500E-004 -5.2420400E-004  8.6935200E-005
  1.3923200E-004 -4.6950300E-004  8.3515100E-005
  1.3182400E-004 -4.1788400E-004  7.9992400E-005
  1.2439900E-004 -3.6849300E-004  7.6354100E-005
  1.1691300E-004 -3.2223300E-004  7.2583600E-005
  1.0922200E-004 -2.7812400E-004  6.8659800E-005
  1.0147400E-004 -2.3737000E-004  6.4555900E-005
  9.3245400E-005 -1.9868200E-004  6.0238900E-005
  8.5048800E-005 -1.6380200E-004  5.5667000E-005
  7.5969400E-005 -1.3085500E-004  5.0788800E-005
  6.7162100E-005 -1.0245100E-004  4.5539500E-005
  5.6836400E-005 -7.5764500E-005  3.9840000E-005
  4.7344600E-005 -5.4697900E-005  3.3587800E-005
  3.5245800E-005 -3.5099700E-005  2.6662800E-005
  2.5347500E-005 -2.2434000E-005  1.8900700E-005
  1.1000200E-005 -1.1028300E-005  1.0153100E-005
  6.1523200E-005 -1.7084200E-002  9.3784600E-005
  6.8522600E-005 -1.6846000E-002  9.3843200E-005
  7.5973000E-005 -1.6607600E-002  9.3927300E-005
  8.3033400E-005 -1.6369500E-002  9.4027900E-005
  9.0327400E-005 -1.6131200E-002  9.4139500E-005
  9.7498700E-005 -1.5893100E-002  9.4256600E-005
  1.0482600E-004 -1.5654900E-002  9.4375800E-005
  1.1221900E-004 -1.5416700E-002  9.4495600E-005
  1.1979400E-004 -1.5178400E-002  9.4616400E-005
  1.2755800E-004 -1.4940000E-002  9.4741000E-005
  1.3556500E-004 -1.4701200E-002  9.4873600E-005
  1.4383800E-004 -1.4461900E-002  9.5020000E-005
  1.5241300E-004 -1.4222100E-002  9.5187100E-005
  1.6129400E-004 -1.3981500E-002  9.5382600E-005
  1.7051300E-004 -1.3739900E-002  9.5614900E-005
  1.8004800E-004 -1.3497300E-002  9.5892400E-005
  1.8991800E-004 -1.3253400E-002  9.6223900E-005
  2.0009000E-004 -1.3008200E-002  9.6617500E-005
  2.1055700E-004 -1.2761500E-002  9.7081300E-005
  2.2128600E-004 -1.2513200E-002  9.7622500E-005
  2.3223400E-004 -1.2263200E-002  9.8247400E-005
  2.4338000E-004 -1.2011400E-002  9.8961400E-005
  2.5464200E-004 -1.1757900E-002  9.9768900E-005
  2.6601300E-004 -1.1502600E-002  1.0067300E-004
  2.7738000E-004 -1.1245500E-002  1.0167500E-004
  2.8874100E-004 -1.0986700E-002  1.0277500E-004
  2.9997400E-004 -1.0726200E-002  1.0397200E-004
  3.1106200E-004 -1.0464300E-002  1.0526400E-004
  3.2190000E-004 -1.0201000E-002  1.0664700E-004
  3.3244000E-004 -9.9365000E-003  1.0811600E-004
  3.4261700E-004 -9.6710600E-003  1.0966200E-004
  3.5233700E-004 -9.4048800E-003  1.1128000E-004
  3.6158600E-004 -9.1382400E-003  1.1295900E-004
  3.7023200E-004 -8.8714100E-003  1.1469000E-004
  3.7830200E-004 -8.6047200E-003  1.1646100E-004
  3.8565000E-004 -8.3384700E-003  1.1826000E-004
  3.9231800E-004 -8.0730400E-003  1.2007600E-004
  3.9818100E-004 -7.8087300E-003  1.2189400E-004
  4.0326400E-004 -7.5459400E-003  1.2370300E-004
  4.0750000E-004 -7.2850200E-003  1.2548700E-004
  4.1086600E-004 -7.0263500E-003  1.2723300E-004
  4.1338100E-004 -6.7702800E-003  1.2892900E-004
  4.1496000E-004 -6.5171900E-003  1.3056000E-004
  4.1570500E-004 -6.2674200E-003  1.3211400E-004
  4.1549000E-004 -6.0213200E-003  1.3357900E-004
  4.1446900E-004 -5.7792200E-003  1.3494400E-004
  4.1251500E-004 -5.5414200E-003  1.3619700E-004
  4.0978100E-004 -5.3082400E-003  1.3732900E-004
  4.0619700E-004 -5.0799100E-003  1.3833000E-004
  4.0185700E-004 -4.8567200E-003  1.3919400E-004
  3.9679200E-004 -4.6388500E-003  1.3991400E-004
  3.9100400E-004 -4.4265400E-003  1.4048300E-004
  3.8463500E-004 -4.2199300E-003  1.4089700E-004
  3.7760100E-004 -4.0191800E-003  1.4115400E-004
  3.7012400E-004 -3.8244000E-003  1.4124900E-004
  3.6207700E-004 -3.6356700E-003  1.4118300E-004
  3.5370100E-004 -3.4530700E-003  1.4095400E-004
  3.4488900E-004 -3.2765900E-003  1.4056300E-004
  3.3583000E-004 -3.1063000E-003  1.4001100E-004
  3.2649700E-004 -2.9421100E-003  1.3930200E-004
  3.1697600E-004 -2.7840600E-003  1.3843600E-004
  3.0734700E-004 -2.6320000E-003  1.3741900E-004
  2.9758300E-004 -2.4859200E-003  1.3625300E-004
  2.8785600E-004 -2.3456500E-003  1.3494400E-004
  2.7805700E-004 -2.2111400E-003  1.3349600E-004
  2.6839900E-004 -2.0821900E-003  1.3191300E-004
  2.5874900E-004 -1.9586900E-003  1.3020200E-004
  2.4929500E-004 -1.8404500E-003  1.2836700E-004
  2.3994600E-004 -1.7273400E-003  1.2641500E-004
  2.3080500E-004 -1.6191400E-003  1.2434900E-004
  2.2186600E-004 -1.5157100E-003  1.2217600E-004
  2.1311800E-004 -1.4168000E-003  1.1990000E-004
  2.0465200E-004 -1.3223100E-003  1.1752600E-004
  1.9635300E-004 -1.2319500E-003  1.1505900E-004
  1.8837800E-004 -1.1456700E-003  1.1250200E-004
  1.8055500E-004 -1.0631300E-003  1.0986000E-004
  1.7305100E-004 -9.8434900E-004  1.0713400E-004
  1.6569300E-004 -9.0893200E-004  1.0432700E-004