# vtk DataFile Version 3.0
MMH: CalculiX output 'object.frd' file to 'vtk' format
ASCII
DATASET UNSTRUCTURED_GRID
POINTS 3232 double
 6.00000000E-001 2.10000000E-001 0.00000000E+000
 6.00000000E-001 2.08667000E-001 0.00000000E+000
 6.00000000E-001 2.07333000E-001 0.00000000E+000
 6.00000000E-001 2.06000000E-001 0.00000000E+000
 6.00000000E-001 2.04667000E-001 0.00000000E+000
 6.00000000E-001 2.03333000E-001 0.00000000E+000
 6.00000000E-001 2.02000000E-001 0.00000000E+000
 6.00000000E-001 2.00667000E-001 0.00000000E+000
 6.00000000E-001 1.99333000E-001 0.00000000E+000
 6.00000000E-001 1.98000000E-001 0.00000000E+000
 6.00000000E-001 1.96667000E-001 0.00000000E+000
 6.00000000E-001 1.95333000E-001 0.00000000E+000
 6.00000000E-001 1.94000000E-001 0.00000000E+000
 6.00000000E-001 1.92667000E-001 0.00000000E+000
 6.00000000E-001 1.91333000E-001 0.00000000E+000
 6.00000000E-001 1.90000000E-001 0.00000000E+000
 5.96490000E-001 1.90000000E-001 0.00000000E+000
 5.92980000E-001 1.90000000E-001 0.00000000E+000
 5.89470000E-001 1.90000000E-001 0.00000000E+000
 5.85960000E-001 1.90000000E-001 0.00000000E+000
 5.82449000E-001 1.90000000E-001 0.00000000E+000
 5.78939000E-001 1.90000000E-001 0.00000000E+000
 5.75429000E-001 1.90000000E-001 0.00000000E+000
 5.71919000E-001 1.90000000E-001 0.00000000E+000
 5.68409000E-001 1.90000000E-001 0.00000000E+000
 5.64899000E-001 1.90000000E-001 0.00000000E+000
 5.61389000E-001 1.90000000E-001 0.00000000E+000
 5.57879000E-001 1.90000000E-001 0.00000000E+000
 5.54369000E-001 1.90000000E-001 0.00000000E+000
 5.50859000E-001 1.90000000E-001 0.00000000E+000
 5.47348000E-001 1.90000000E-001 0.00000000E+000
 5.43838000E-001 1.90000000E-001 0.00000000E+000
 5.40328000E-001 1.90000000E-001 0.00000000E+000
 5.36818000E-001 1.90000000E-001 0.00000000E+000
 5.33308000E-001 1.90000000E-001 0.00000000E+000
 5.29798000E-001 1.90000000E-001 0.00000000E+000
 5.26288000E-001 1.90000000E-001 0.00000000E+000
 5.22778000E-001 1.90000000E-001 0.00000000E+000
 5.19268000E-001 1.90000000E-001 0.00000000E+000
 5.15758000E-001 1.90000000E-001 0.00000000E+000
 5.12247000E-001 1.90000000E-001 0.00000000E+000
 5.08737000E-001 1.90000000E-001 0.00000000E+000
 5.05227000E-001 1.90000000E-001 0.00000000E+000
 5.01717000E-001 1.90000000E-001 0.00000000E+000
 4.98207000E-001 1.90000000E-001 0.00000000E+000
 4.94697000E-001 1.90000000E-001 0.00000000E+000
 4.91187000E-001 1.90000000E-001 0.00000000E+000
 4.87677000E-001 1.90000000E-001 0.00000000E+000
 4.84167000E-001 1.90000000E-001 0.00000000E+000
 4.80657000E-001 1.90000000E-001 0.00000000E+000
 4.77146000E-001 1.90000000E-001 0.00000000E+000
 4.73636000E-001 1.90000000E-001 0.00000000E+000
 4.70126000E-001 1.90000000E-001 0.00000000E+000
 4.66616000E-001 1.90000000E-001 0.00000000E+000
 4.63106000E-001 1.90000000E-001 0.00000000E+000
 4.59596000E-001 1.90000000E-001 0.00000000E+000
 4.56086000E-001 1.90000000E-001 0.00000000E+000
 4.52576000E-001 1.90000000E-001 0.00000000E+000
 4.49066000E-001 1.90000000E-001 0.00000000E+000
 4.45556000E-001 1.90000000E-001 0.00000000E+000
 4.42045000E-001 1.90000000E-001 0.00000000E+000
 4.38535000E-001 1.90000000E-001 0.00000000E+000
 4.35025000E-001 1.90000000E-001 0.00000000E+000
 4.31515000E-001 1.90000000E-001 0.00000000E+000
 4.28005000E-001 1.90000000E-001 0.00000000E+000
 4.24495000E-001 1.90000000E-001 0.00000000E+000
 4.20985000E-001 1.90000000E-001 0.00000000E+000
 4.17475000E-001 1.90000000E-001 0.00000000E+000
 4.13965000E-001 1.90000000E-001 0.00000000E+000
 4.10455000E-001 1.90000000E-001 0.00000000E+000
 4.06944000E-001 1.90000000E-001 0.00000000E+000
 4.03434000E-001 1.90000000E-001 0.00000000E+000
 3.99924000E-001 1.90000000E-001 0.00000000E+000
 3.96414000E-001 1.90000000E-001 0.00000000E+000
 3.92904000E-001 1.90000000E-001 0.00000000E+000
 3.89394000E-001 1.90000000E-001 0.00000000E+000
 3.85884000E-001 1.90000000E-001 0.00000000E+000
 3.82374000E-001 1.90000000E-001 0.00000000E+000
 3.78864000E-001 1.90000000E-001 0.00000000E+000
 3.75353000E-001 1.90000000E-001 0.00000000E+000
 3.71843000E-001 1.90000000E-001 0.00000000E+000
 3.68333000E-001 1.90000000E-001 0.00000000E+000
 3.64823000E-001 1.90000000E-001 0.00000000E+000
 3.61313000E-001 1.90000000E-001 0.00000000E+000
 3.57803000E-001 1.90000000E-001 0.00000000E+000
 3.54293000E-001 1.90000000E-001 0.00000000E+000
 3.50783000E-001 1.90000000E-001 0.00000000E+000
 3.47273000E-001 1.90000000E-001 0.00000000E+000
 3.43763000E-001 1.90000000E-001 0.00000000E+000
 3.40252000E-001 1.90000000E-001 0.00000000E+000
 3.36742000E-001 1.90000000E-001 0.00000000E+000
 3.33232000E-001 1.90000000E-001 0.00000000E+000
 3.29722000E-001 1.90000000E-001 0.00000000E+000
 3.26212000E-001 1.90000000E-001 0.00000000E+000
 3.22702000E-001 1.90000000E-001 0.00000000E+000
 3.19192000E-001 1.90000000E-001 0.00000000E+000
 3.15682000E-001 1.90000000E-001 0.00000000E+000
 3.12172000E-001 1.90000000E-001 0.00000000E+000
 3.08661000E-001 1.90000000E-001 0.00000000E+000
 3.05151000E-001 1.90000000E-001 0.00000000E+000
 3.01641000E-001 1.90000000E-001 0.00000000E+000
 2.98131000E-001 1.90000000E-001 0.00000000E+000
 2.94621000E-001 1.90000000E-001 0.00000000E+000
 2.91111000E-001 1.90000000E-001 0.00000000E+000
 2.87601000E-001 1.90000000E-001 0.00000000E+000
 2.84091000E-001 1.90000000E-001 0.00000000E+000
 2.80581000E-001 1.90000000E-001 0.00000000E+000
 2.77071000E-001 1.90000000E-001 0.00000000E+000
 2.73560000E-001 1.90000000E-001 0.00000000E+000
 2.70050000E-001 1.90000000E-001 0.00000000E+000
 2.66540000E-001 1.90000000E-001 0.00000000E+000
 2.63030000E-001 1.90000000E-001 0.00000000E+000
 2.59520000E-001 1.90000000E-001 0.00000000E+000
 2.56010000E-001 1.90000000E-001 0.00000000E+000
 2.52500000E-001 1.90000000E-001 0.00000000E+000
 2.48990000E-001 1.90000000E-001 0.00000000E+000
 2.48990000E-001 1.91333000E-001 0.00000000E+000
 2.48990000E-001 1.92667000E-001 0.00000000E+000
 2.48990000E-001 1.94000000E-001 0.00000000E+000
 2.48990000E-001 1.95333000E-001 0.00000000E+000
 2.48990000E-001 1.96667000E-001 0.00000000E+000
 2.48990000E-001 1.98000000E-001 0.00000000E+000
 2.48990000E-001 1.99333000E-001 0.00000000E+000
 2.48990000E-001 2.00667000E-001 0.00000000E+000
 2.48990000E-001 2.02000000E-001 0.00000000E+000
 2.48990000E-001 2.03333000E-001 0.00000000E+000
 2.48990000E-001 2.04667000E-001 0.00000000E+000
 2.48990000E-001 2.06000000E-001 0.00000000E+000
 2.48990000E-001 2.07333000E-001 0.00000000E+000
 2.48990000E-001 2.08667000E-001 0.00000000E+000
 2.48990000E-001 2.10000000E-001 0.00000000E+000
 2.52500000E-001 2.10000000E-001 0.00000000E+000
 2.56010000E-001 2.10000000E-001 0.00000000E+000
 2.59520000E-001 2.10000000E-001 0.00000000E+000
 2.63030000E-001 2.10000000E-001 0.00000000E+000
 2.66540000E-001 2.10000000E-001 0.00000000E+000
 2.70050000E-001 2.10000000E-001 0.00000000E+000
 2.73560000E-001 2.10000000E-001 0.00000000E+000
 2.77071000E-001 2.10000000E-001 0.00000000E+000
 2.80581000E-001 2.10000000E-001 0.00000000E+000
 2.84091000E-001 2.10000000E-001 0.00000000E+000
 2.87601000E-001 2.10000000E-001 0.00000000E+000
 2.91111000E-001 2.10000000E-001 0.00000000E+000
 2.94621000E-001 2.10000000E-001 0.00000000E+000
 2.98131000E-001 2.10000000E-001 0.00000000E+000
 3.01641000E-001 2.10000000E-001 0.00000000E+000
 3.05151000E-001 2.10000000E-001 0.00000000E+000
 3.08661000E-001 2.10000000E-001 0.00000000E+000
 3.12172000E-001 2.10000000E-001 0.00000000E+000
 3.15682000E-001 2.10000000E-001 0.00000000E+000
 3.19192000E-001 2.10000000E-001 0.00000000E+000
 3.22702000E-001 2.10000000E-001 0.00000000E+000
 3.26212000E-001 2.10000000E-001 0.00000000E+000
 3.29722000E-001 2.10000000E-001 0.00000000E+000
 3.33232000E-001 2.10000000E-001 0.00000000E+000
 3.36742000E-001 2.10000000E-001 0.00000000E+000
 3.40252000E-001 2.10000000E-001 0.00000000E+000
 3.43763000E-001 2.10000000E-001 0.00000000E+000
 3.47273000E-001 2.10000000E-001 0.00000000E+000
 3.50783000E-001 2.10000000E-001 0.00000000E+000
 3.54293000E-001 2.10000000E-001 0.00000000E+000
 3.57803000E-001 2.10000000E-001 0.00000000E+000
 3.61313000E-001 2.10000000E-001 0.00000000E+000
 3.64823000E-001 2.10000000E-001 0.00000000E+000
 3.68333000E-001 2.10000000E-001 0.00000000E+000
 3.71843000E-001 2.10000000E-001 0.00000000E+000
 3.75353000E-001 2.10000000E-001 0.00000000E+000
 3.78864000E-001 2.10000000E-001 0.00000000E+000
 3.82374000E-001 2.10000000E-001 0.00000000E+000
 3.85884000E-001 2.10000000E-001 0.00000000E+000
 3.89394000E-001 2.10000000E-001 0.00000000E+000
 3.92904000E-001 2.10000000E-001 0.00000000E+000
 3.96414000E-001 2.10000000E-001 0.00000000E+000
 3.99924000E-001 2.10000000E-001 0.00000000E+000
 4.03434000E-001 2.10000000E-001 0.00000000E+000
 4.06944000E-001 2.10000000E-001 0.00000000E+000
 4.10455000E-001 2.10000000E-001 0.00000000E+000
 4.13965000E-001 2.10000000E-001 0.00000000E+000
 4.17475000E-001 2.10000000E-001 0.00000000E+000
 4.20985000E-001 2.10000000E-001 0.00000000E+000
 4.24495000E-001 2.10000000E-001 0.00000000E+000
 4.28005000E-001 2.10000000E-001 0.00000000E+000
 4.31515000E-001 2.10000000E-001 0.00000000E+000
 4.35025000E-001 2.10000000E-001 0.00000000E+000
 4.38535000E-001 2.10000000E-001 0.00000000E+000
 4.42045000E-001 2.10000000E-001 0.00000000E+000
 4.45556000E-001 2.10000000E-001 0.00000000E+000
 4.49066000E-001 2.10000000E-001 0.00000000E+000
 4.52576000E-001 2.10000000E-001 0.00000000E+000
 4.56086000E-001 2.10000000E-001 0.00000000E+000
 4.59596000E-001 2.10000000E-001 0.00000000E+000
 4.63106000E-001 2.10000000E-001 0.00000000E+000
 4.66616000E-001 2.10000000E-001 0.00000000E+000
 4.70126000E-001 2.10000000E-001 0.00000000E+000
 4.73636000E-001 2.10000000E-001 0.00000000E+000
 4.77146000E-001 2.10000000E-001 0.00000000E+000
 4.80657000E-001 2.10000000E-001 0.00000000E+000
 4.84167000E-001 2.10000000E-001 0.00000000E+000
 4.87677000E-001 2.10000000E-001 0.00000000E+000
 4.91187000E-001 2.10000000E-001 0.00000000E+000
 4.94697000E-001 2.10000000E-001 0.00000000E+000
[...]
POINT_DATA 3232
VECTORS DISP double
 -2.1898500E-003 -2.8555400E-002 -7.1002600E-006
 -2.5568500E-003 -2.8504500E-002 -7.2281500E-006
 -2.9251200E-003 -2.8452400E-002 -7.6094300E-006
 -3.2925800E-003 -2.8400700E-002 -8.2158900E-006
 -3.6603700E-003 -2.8348800E-002 -9.0107500E-006
 -4.0279100E-003 -2.8297000E-002 -9.9609200E-006
 -4.3955500E-003 -2.8245300E-002 -1.1023900E-005
 -4.7630700E-003 -2.8193500E-002 -1.2155400E-005
 -5.1306900E-003 -2.8141800E-002 -1.3307700E-005
 -5.4982100E-003 -2.8090200E-002 -1.4433000E-005
 -5.8658100E-003 -2.8038500E-002 -1.5483500E-005
 -6.2333500E-003 -2.7986900E-002 -1.6415700E-005
 -6.6010400E-003 -2.7935300E-002 -1.7188500E-005
 -6.9684900E-003 -2.7883700E-002 -1.7769100E-005
 -7.3364300E-003 -2.7832000E-002 -1.8127500E-005
 -7.7035300E-003 -2.7780400E-002 -1.8246600E-005
 -7.5676100E-003 -2.6812800E-002 -1.8372400E-005
 -7.4307800E-003 -2.5845000E-002 -1.8747100E-005
 -7.2942400E-003 -2.4877400E-002 -1.9374300E-005
 -7.1570300E-003 -2.3909700E-002 -2.0266100E-005
 -7.0196200E-003 -2.2942400E-002 -2.1433700E-005
 -6.8815200E-003 -2.1975300E-002 -2.2887300E-005
 -6.7429200E-003 -2.1009100E-002 -2.4636500E-005
 -6.6035300E-003 -2.0043600E-002 -2.6688900E-005
 -6.4634400E-003 -1.9079700E-002 -2.9049900E-005
 -6.3224400E-003 -1.8117300E-002 -3.1723000E-005
 -6.1806400E-003 -1.7157400E-002 -3.4708200E-005
 -6.0378700E-003 -1.6200200E-002 -3.8004000E-005
 -5.8942400E-003 -1.5246600E-002 -4.1605100E-005
 -5.7496700E-003 -1.4297100E-002 -4.5504000E-005
 -5.6042600E-003 -1.3352500E-002 -4.9690000E-005
 -5.4580000E-003 -1.2413700E-002 -5.4149900E-005
 -5.3110000E-003 -1.1481500E-002 -5.8867900E-005
 -5.1633400E-003 -1.0556800E-002 -6.3824800E-005
 -5.0151000E-003 -9.6404900E-003 -6.9000000E-005
 -4.8664600E-003 -8.7337400E-003 -7.4369200E-005
 -4.7174900E-003 -7.8373600E-003 -7.9907100E-005
 -4.5684200E-003 -6.9526100E-003 -8.5585200E-005
 -4.4193400E-003 -6.0803900E-003 -9.1374000E-005
 -4.2704900E-003 -5.2219400E-003 -9.7241700E-005
 -4.1220100E-003 -4.3782500E-003 -1.0315500E-004
 -3.9741300E-003 -3.5505200E-003 -1.0908100E-004
 -3.8270300E-003 -2.7398500E-003 -1.1498500E-004
 -3.6809000E-003 -1.9472700E-003 -1.2083000E-004
 -3.5359500E-003 -1.1739700E-003 -1.2658200E-004
 -3.3923500E-003 -4.2087400E-004 -1.3220600E-004
 -3.2503300E-003  3.1082100E-004 -1.3766500E-004
 -3.1100200E-003  1.0202800E-003 -1.4292800E-004
 -2.9716400E-003  1.7064000E-003 -1.4795900E-004
 -2.8353000E-003  2.3683700E-003 -1.5272800E-004
 -2.7011800E-003  3.0052600E-003 -1.5720600E-004
 -2.5693900E-003  3.6162900E-003 -1.6136300E-004
 -2.4400500E-003  4.2007300E-003 -1.6517400E-004
 -2.3132700E-003  4.7578100E-003 -1.6861700E-004
 -2.1891200E-003  5.2870300E-003 -1.7166900E-004
 -2.0676600E-003  5.7876900E-003 -1.7431200E-004
 -1.9489500E-003  6.2594700E-003 -1.7653200E-004
 -1.8330200E-003  6.7018000E-003 -1.7831500E-004
 -1.7198600E-003  7.1144800E-003 -1.7965000E-004
 -1.6095100E-003  7.4971300E-003 -1.8053100E-004
 -1.5019100E-003  7.8496500E-003 -1.8095200E-004
 -1.3970800E-003  8.1718800E-003 -1.8091100E-004
 -1.2949500E-003  8.4637600E-003 -1.8040900E-004
 -1.1954900E-003  8.7254100E-003 -1.7944900E-004
 -1.0986400E-003  8.9568100E-003 -1.7803400E-004
 -1.0043300E-003  9.1582800E-003 -1.7617100E-004
 -9.1253300E-004  9.3299100E-003 -1.7387000E-004
 -8.2313200E-004  9.4721700E-003 -1.7114100E-004
 -7.3612100E-004  9.5853200E-003 -1.6799500E-004
 -6.5137200E-004  9.6698800E-003 -1.6444600E-004
 -5.6890400E-004  9.7263500E-003 -1.6050900E-004
 -4.8858000E-004  9.7552300E-003 -1.5619900E-004
 -4.1044300E-004  9.7573100E-003 -1.5153200E-004
 -3.3436600E-004  9.7330200E-003 -1.4652600E-004
 -2.6040800E-004  9.6834700E-003 -1.4119900E-004
 -1.8847200E-004  9.6090000E-003 -1.3557000E-004
 -1.1862600E-004  9.5109500E-003 -1.2965600E-004
 -5.0811700E-005  9.3897100E-003 -1.2347800E-004
  1.4891600E-005  9.2467200E-003 -1.1705500E-004
  7.8505100E-005  9.0825000E-003 -1.1040500E-004
  1.3992700E-004  8.8984800E-003 -1.0354900E-004
  1.9915600E-004  8.6954200E-003 -9.6505000E-005
  2.5604700E-004  8.4746500E-003 -8.9293200E-005
  3.1060200E-004  8.2371600E-003 -8.1933000E-005
  3.6260200E-004  7.9842500E-003 -7.4442400E-005
  4.1209300E-004  7.7170300E-003 -6.6841600E-005
  4.5874300E-004  7.4368700E-003 -5.9147800E-005
  5.0268200E-004  7.1448600E-003 -5.1381400E-005
  5.4343900E-004  6.8426200E-003 -4.3559400E-005
  5.8125700E-004  6.5309700E-003 -3.5702200E-005
  6.1551100E-004  6.2120300E-003 -2.7827600E-005
  6.4656900E-004  5.8861600E-003 -1.9956100E-005
  6.7366500E-004  5.5560800E-003 -1.2107700E-005
  6.9728700E-004  5.2216000E-003 -4.3043300E-006
  7.1654600E-004  4.8860800E-003  3.4309600E-006
  7.3203800E-004  4.5487800E-003  1.1072800E-005
  7.4278200E-004  4.2136900E-003  1.8592700E-005
  7.4946500E-004  3.8795100E-003  2.5958400E-005
  7.5105000E-004  3.5508400E-003  3.3133400E-005
  7.4829100E-004  3.2258400E-003  4.0073000E-005
  7.4013300E-004  2.9097200E-003  4.6727600E-005
  7.2737000E-004  2.6000200E-003  5.3032100E-005
  7.0899600E-004  2.3027500E-003  5.8916000E-005
  6.8575500E-004  2.0144800E-003  6.4282000E-005
  6.5685200E-004  1.7424900E-003  6.9025500E-005
  6.2275900E-004  1.4817600E-003  7.2999000E-005
  5.8324200E-004  1.2416400E-003  7.6043900E-005
  5.3800500E-004  1.0144700E-003  7.7933300E-005
  4.8812500E-004  8.1300800E-004  7.8423900E-005
  4.3145700E-004  6.2518700E-004  7.7159400E-005
  3.7196500E-004  4.6953300E-004  7.3763200E-005
  3.0334200E-004  3.2639000E-004  6.7652300E-005
  2.3619100E-004  2.2498900E-004  5.8252000E-005
  1.5539000E-004  1.2970200E-004  4.4560500E-005
  9.0325300E-005  9.2729700E-005  2.5901300E-005
  0.0000000E+000  0.0000000E+000  0.0000000E+000
  0.0000000E+000  0.0000000E+000  0.0000000E+000
  0.0000000E+000  0.0000000E+000  0.0000000E+000
  0.0000000E+000  0.0000000E+000  0.0000000E+000
  0.0000000E+000  0.0000000E+000  0.0000000E+000
  0.0000000E+000  0.0000000E+000  0.0000000E+000
  0.0000000E+000  0.0000000E+000  0.0000000E+000
  0.0000000E+000  0.0000000E+000  0.0000000E+000
  0.0000000E+000  0.0000000E+000  0.0000000E+000
  0.0000000E+000  0.0000000E+000  0.0000000E+000
  0.0000000E+000  0.0000000E+000  0.0000000E+000
  0.0000000E+000  0.0000000E+000  0.0000000E+000
  0.0000000E+000  0.0000000E+000  0.0000000E+000
  0.0000000E+000  0.0000000E+000  0.0000000E+000
  0.0000000E+000  0.0000000E+000  0.0000000E+000
  0.0000000E+000  0.0000000E+000  0.0000000E+000
 -9.8524700E-005  9.8993500E-005 -2.5231300E-005
 -1.6529500E-004  1.3266200E-004 -4.3224500E-005
 -2.5318600E-004  2.2602800E-004 -5.6253000E-005
 -3.2665700E-004  3.2221300E-004 -6.4926500E-005
 -4.0449200E-004  4.6141700E-004 -7.0264200E-005
 -4.7423100E-004  6.1049800E-004 -7.2846300E-005
 -5.4360300E-004  7.9338500E-004 -7.3278000E-005
 -6.0796500E-004  9.8754900E-004 -7.1954500E-005
 -6.7007000E-004  1.2093900E-003 -6.9251800E-005
 -7.2849700E-004  1.4421400E-003 -6.5434400E-005
 -7.8377500E-004  1.6975800E-003 -6.0745300E-005
 -8.3589500E-004  1.9627600E-003 -5.5362300E-005
 -8.8439500E-004  2.2461500E-003 -4.9446300E-005
 -9.2985200E-004  2.5376600E-003 -4.3117200E-005
 -9.7140100E-004  2.8432200E-003 -3.6483800E-005
 -1.0098100E-003  3.1549900E-003 -2.9627200E-005
 -1.0441000E-003  3.4768500E-003 -2.2622400E-005
 -1.0750300E-003  3.8027900E-003 -1.5524300E-005
 -1.1016700E-003  4.1350900E-003 -8.3861300E-006
 -1.1246800E-003  4.4691000E-003 -1.2449900E-006
 -1.1432700E-003  4.8059900E-003  5.8606400E-006
 -1.1579300E-003  5.1420000E-003  1.2905200E-005
 -1.1680500E-003  5.4776300E-003  1.9860800E-005
 -1.1739700E-003  5.8096300E-003  2.6709100E-005
 -1.1752600E-003  6.1382000E-003  3.3430100E-005
 -1.1721200E-003  6.4602900E-003  4.0009600E-005
 -1.1642800E-003  6.7760300E-003  4.6433500E-005
 -1.1518900E-003  7.0824300E-003  5.2690500E-005
 -1.1347400E-003  7.3796500E-003  5.8770800E-005
 -1.1130000E-003  7.6647700E-003  6.4664500E-005
 -1.0865300E-003  7.9378800E-003  7.0365000E-005
 -1.0555200E-003  8.1962900E-003  7.5863600E-005
 -1.0198600E-003  8.4398900E-003  8.1155400E-005
 -9.7981700E-004  8.6663800E-003  8.6233600E-005
 -9.3531200E-004  8.8752800E-003  9.1093100E-005
 -8.8667700E-004  9.0648400E-003  9.5728900E-005
 -8.3388000E-004  9.2341600E-003  1.0013600E-004
 -7.7729600E-004  9.3820500E-003  1.0430900E-004
 -7.1698000E-004  9.5072300E-003  1.0824400E-004
 -6.5331200E-004  9.6089900E-003  1.1193700E-004
 -5.8646800E-004  9.6858700E-003  1.1538200E-004
 -5.1680800E-004  9.7374000E-003  1.1857500E-004
 -4.4463700E-004  9.7622400E-003  1.2151200E-004
 -3.7029800E-004  9.7598700E-003  1.2418700E-004
 -2.9420200E-004  9.7293500E-003  1.2659500E-004
 -2.1670400E-004  9.6699400E-003  1.2873200E-004
 -1.3827100E-004  9.5812200E-003  1.3059300E-004
 -5.9308600E-005  9.4621900E-003  1.3217200E-004
  1.9710800E-005  9.3129500E-003  1.3346400E-004
  9.8301900E-005  9.1323500E-003  1.3446400E-004
  1.7602800E-004  8.9208400E-003  1.3516900E-004
  2.5231700E-004  8.6773700E-003  1.3557100E-004
  3.2677900E-004  8.4024800E-003  1.3566900E-004
  3.9879300E-004  8.0955100E-003  1.3545800E-004
  4.6798700E-004  7.7568300E-003  1.3493600E-004
  5.3375700E-004  7.3863900E-003  1.3410100E-004
  5.9571000E-004  6.9842700E-003  1.3295000E-004
  6.5332800E-004  6.5510600E-003  1.3148700E-004
  7.0617000E-004  6.0866000E-003  1.2971100E-004
  7.5384800E-004  5.5920000E-003  1.2762700E-004
  7.9587900E-004  5.0670500E-003  1.2523800E-004
  8.3200900E-004  4.5131100E-003  1.2255300E-004
  8.6176100E-004  3.9301900E-003  1.1957900E-004
  8.8497900E-004  3.3196400E-003  1.1632800E-004
  9.0126400E-004  2.6819000E-003  1.1281300E-004
  9.1050800E-004  2.0181000E-003  1.0904900E-004
  9.1245300E-004  1.3291800E-003  1.0505400E-004
  9.0700500E-004  6.1602600E-004  1.0084400E-004
  8.9408100E-004 -1.1999500E-004  9.6443500E-005
  8.7359300E-004 -8.7814900E-004  9.1872700E-005
  8.4562400E-004 -1.6568500E-003  8.7157300E-005
  8.1011600E-004 -2.4553700E-003  8.2321600E-005
  7.6727700E-004 -3.2720900E-003  7.7393200E-005
  7.1712200E-004 -4.1061700E-003  7.2398900E-005
  6.5992600E-004 -4.9561300E-003  6.7366900E-005
  5.9580200E-004 -5.8209800E-003  6.2325700E-005
  5.2506500E-004 -6.6993800E-003  5.7303100E-005
  4.4792700E-004 -7.5902300E-003  5.2327400E-005
  3.6471800E-004 -8.4924000E-003  4.7425900E-005
  2.7573000E-004 -9.4047200E-003  4.2625200E-005
  1.8130900E-004 -1.0326200E-002  3.7950900E-005
  8.1795500E-005 -1.1255800E-002  3.3427100E-005
 -2.2449600E-005 -1.2192500E-002  2.9076500E-005
 -1.3105900E-004 -1.3135400E-002  2.4919600E-005
 -2.4367600E-004 -1.4083800E-002  2.0975600E-005
 -3.5991300E-004 -1.5036500E-002  1.7260800E-005
 -4.7944100E-004 -1.5993200E-002  1.3789900E-005
 -6.0185200E-004 -1.6952900E-002  1.0574500E-005
 -7.2687400E-004 -1.7915300E-002  7.6243000E-006
 -8.5407800E-004 -1.8879300E-002  4.9459900E-006
 -9.8326300E-004 -1.9845300E-002  2.5439100E-006
 -1.1140000E-003 -2.0811800E-002  4.1952900E-007
 -1.2461400E-003 -2.1779600E-002 -1.4275500E-006
 -1.3793000E-003 -2.2747300E-002 -3.0012400E-006
 -1.5133600E-003 -2.3715900E-002 -4.3055800E-006
 -1.6480200E-003 -2.4683700E-002 -5.3493700E-006
 -1.7831300E-003 -2.5652400E-002 -6.1387800E-006
 -1.9185800E-003 -2.6619800E-002 -6.6865300E-006
 -2.0539200E-003 -2.7588800E-002 -7.0023700E-006
 -2.4217700E-003 -2.7536200E-002 -7.1320200E-006
 -2.2860400E-003 -2.6568400E-002 -6.8237200E-006
 -2.1506800E-003 -2.5600100E-002 -6.2884000E-006
 -2.0155300E-003 -2.4632000E-002 -5.5185800E-006
 -1.8807000E-003 -2.3663400E-002 -4.5017100E-006
 -1.7465300E-003 -2.2695300E-002 -3.2310700E-006
 -1.6129900E-003 -2.1727000E-002 -1.6987400E-006
 -1.4805200E-003 -2.0759500E-002  9.9746000E-008
 -1.3491300E-003 -1.9792500E-002  2.1678000E-006
 -1.2192900E-003 -1.8826800E-002  4.5059800E-006
 -1.0910800E-003 -1.7862300E-002  7.1127200E-006
 -9.6496600E-004 -1.6900100E-002  9.9838000E-006
 -8.4109800E-004 -1.5940200E-002  1.3112500E-005
 -7.1994800E-004 -1.4983600E-002  1.6489700E-005
 -6.0171600E-004 -1.4030700E-002  2.0103600E-005
 -4.8685800E-004 -1.3082600E-002  2.3940300E-005
 -3.7562800E-004 -1.2139700E-002  2.7983500E-005
 -2.6844900E-004 -1.1203200E-002  3.2214800E-005
 -1.6561100E-004 -1.0273900E-002  3.6614000E-005
 -6.7501600E-005 -9.3527200E-003  4.1159100E-005
  2.5579200E-005 -8.4407500E-003  4.5826500E-005
  1.1328100E-004 -7.5390600E-003  5.0591500E-005
  1.9532200E-004 -6.6487600E-003  5.5428100E-005
  2.7139100E-004 -5.7709500E-003  6.0309800E-005
  3.4125200E-004 -4.9068500E-003  6.5209100E-005
  4.0464000E-004 -4.0575800E-003  7.0098900E-005
  4.6136900E-004 -3.2244600E-003  7.4951600E-005
  5.1125700E-004 -2.4085100E-003  7.9740000E-005
  5.5416200E-004 -1.6111400E-003  8.4437600E-005
  5.9000900E-004 -8.3332400E-004  8.9018500E-005
  6.1869200E-004 -7.6435800E-005  9.3458200E-005
  6.4026800E-004  6.5856200E-004  9.7733100E-005
  6.5466700E-004  1.3704200E-003  1.0182100E-004
  6.6207400E-004  2.0581400E-003  1.0570300E-004
  6.6247800E-004  2.7207000E-003  1.0935900E-004
  6.5616000E-004  3.3570700E-003  1.1277400E-004
  6.4320400E-004  3.9664800E-003  1.1593200E-004
  6.2393900E-004  4.5478700E-003  1.1882100E-004
  5.9858400E-004  5.1007800E-003  1.2143200E-004
  5.6746500E-004  5.6241700E-003  1.2375500E-004
  5.3095700E-004  6.1177900E-003  1.2578300E-004
  4.8935300E-004  6.5807600E-003  1.2751200E-004
  4.4317300E-004  7.0129700E-003  1.2894000E-004
  3.9268300E-004  7.4138100E-003  1.3006300E-004
  3.3849000E-004  7.7831700E-003  1.3088200E-004
  2.8087500E-004  8.1208300E-003  1.3139900E-004
  2.2045700E-004  8.4266400E-003  1.3161300E-004
  1.5757200E-004  8.7007900E-003  1.3153000E-004
  9.2786900E-005  8.9430800E-003  1.3115100E-004
  2.6519200E-005  9.1540500E-003  1.3048000E-004
 -4.0766400E-005  9.3335500E-003  1.2952300E-004
 -1.0856100E-004  9.4823400E-003  1.2828400E-004
 -1.7651800E-004  9.6004600E-003  1.2676600E-004
 -2.4406800E-004  9.6887200E-003  1.2497600E-004
 -3.1095600E-004  9.7474600E-003  1.2291800E-004
 -3.7661100E-004  9.7774700E-003  1.2059700E-004
 -4.4082700E-004  9.7794000E-003  1.1801800E-004
 -5.0309200E-004  9.7540000E-003  1.1518400E-004
 -5.6320400E-004  9.7022000E-003  1.1210200E-004
 -6.2076000E-004  9.6247700E-003  1.0877400E-004
 -6.7553200E-004  9.5227800E-003  1.0520600E-004
 -7.2725700E-004  9.3971400E-003  1.0140100E-004
 -7.7567200E-004  9.2489500E-003  9.7364400E-005
 -8.2064400E-004  9.0793300E-003  9.3100000E-005
 -8.6190400E-004  8.8892800E-003  8.8612300E-005
 -8.9941300E-004  8.6802500E-003  8.3905700E-005
 -9.3293700E-004  8.4530500E-003  7.8985200E-005
 -9.6248000E-004  8.2094800E-003  7.3855800E-005
 -9.8789300E-004  7.9501300E-003  6.8523200E-005
 -1.0091700E-003  7.6771400E-003  6.2993100E-005
 -1.0262900E-003  7.3908900E-003  5.7272800E-005
 -1.0392000E-003  7.0938000E-003  5.1369400E-005
 -1.0479900E-003  6.7861200E-003  4.5291800E-005
 -1.0526000E-003  6.4704400E-003  3.9049700E-005
 -1.0532000E-003  6.1469300E-003  3.2654200E-005
 -1.0497000E-003  5.8183600E-003  2.6118400E-005
 -1.0423600E-003  5.4847400E-003  1.9457200E-005
 -1.0310900E-003  5.1491100E-003  1.2688200E-005
 -1.0161200E-003  4.8111900E-003  5.8319300E-006
 -9.9748100E-004  4.4744300E-003 -1.0874000E-006
 -9.7530300E-004  4.1380500E-003 -8.0415500E-006
 -9.4974100E-004  3.8061800E-003 -1.4996400E-005
 -9.2077500E-004  3.4772300E-003 -2.1911900E-005
 -8.8875800E-004  3.1563200E-003 -2.8739900E-005
 -8.5341900E-004  2.8407000E-003 -3.5422700E-005
 -8.1541000E-004  2.5368400E-003 -4.1890900E-005
 -7.7404700E-004  2.2404300E-003 -4.8060600E-005
 -7.3048900E-004  1.9597500E-003 -5.3830500E-005
 -6.8332200E-004  1.6883800E-003 -5.9077000E-005
 -6.3464700E-004  1.4370200E-003 -6.3650400E-005
 -5.8167400E-004  1.1964100E-003 -6.7366700E-005
 -5.2835600E-004  9.8054400E-004 -7.0001500E-005
 -4.6920500E-004  7.7625900E-004 -7.1279000E-005
 -4.1188700E-004  6.0215200E-004 -7.0856400E-005
 -3.4554100E-004  4.3951000E-004 -6.8316200E-005
 -2.8540700E-004  3.1362800E-004 -6.3120400E-005
 -2.0990100E-004  1.9824200E-004 -5.4646900E-005
 -1.5030000E-004  1.2650500E-004 -4.2032300E-005
 -6.4122300E-005  6.4477600E-005 -2.4578500E-005
 -2.7890700E-003 -2.7484500E-002 -7.5151500E-006
 -2.6537600E-003 -2.6516400E-002 -7.2253200E-006
 -2.5181000E-003 -2.5548300E-002 -6.7278900E-006
 -2.3829200E-003 -2.4579900E-002 -6.0142400E-006
 -2.2479500E-003 -2.3611500E-002 -5.0746100E-006
 -2.1134900E-003 -2.2643100E-002 -3.9007600E-006
 -1.9796900E-003 -2.1675000E-002 -2.4865900E-006
 -1.8466700E-003 -2.0707200E-002 -8.2712300E-007
 -1.7147600E-003 -1.9740200E-002  1.0801600E-006
 -1.5840400E-003 -1.8774300E-002  3.2359800E-006
 -1.4549400E-003 -1.7809900E-002  5.6386200E-006
 -1.3275400E-003 -1.6847500E-002  8.2841500E-006
 -1.2023100E-003 -1.5887800E-002  1.1166200E-005
 -1.0793900E-003 -1.4931200E-002  1.4276300E-005
 -9.5922400E-004 -1.3978500E-002  1.7603300E-005
 -8.4201600E-004 -1.3030500E-002  2.1134400E-005
 -7.2820500E-004 -1.2087900E-002  2.4854300E-005
 -6.1802100E-004 -1.1151600E-002  2.8746200E-005
 -5.1188300E-004 -1.0222600E-002  3.2791200E-005
 -4.1004300E-004 -9.3018900E-003  3.6969000E-005
 -3.1289000E-004 -8.3904200E-003  4.1257800E-005
 -2.2067400E-004 -7.4893000E-003  4.5634900E-005
 -1.3375300E-004 -6.5996300E-003  5.0076400E-005
 -5.2345900E-005 -5.7225700E-003  5.4557800E-005
  2.3227300E-005 -4.8592400E-003  5.9054000E-005
  9.2789600E-005 -4.0108900E-003  6.3540100E-005
  1.5607700E-004 -3.1786600E-003  6.7990900E-005
  2.1296300E-004 -2.3638000E-003  7.2381600E-005
  2.6327100E-004 -1.5674500E-003  7.6688000E-005
  3.0690300E-004 -7.9083500E-004  8.0886600E-005
  3.4381400E-004 -3.5095100E-005  8.4955000E-005
  3.7391300E-004  6.9862700E-004  8.8872100E-005
  3.9731100E-004  1.4092100E-003  9.2617900E-005
  4.1392900E-004  2.0956400E-003  9.6174300E-005
  4.2401600E-004  2.7568300E-003  9.9524800E-005
  4.2754200E-004  3.3919000E-003  1.0265500E-004
  4.2484500E-004  3.9998800E-003  1.0555100E-004
  4.1599400E-004  4.5800200E-003  1.0820200E-004
  4.0135000E-004  5.1314800E-003  1.1060000E-004
  3.8113500E-004  5.6536600E-003  1.1273500E-004
  3.5566900E-004  6.1458800E-003  1.1460400E-004
  3.2535400E-004  6.6076900E-003  1.1620200E-004
  2.9044300E-004  7.0386000E-003  1.1752600E-004
  2.5149100E-004  7.4383100E-003  1.1857400E-004
  2.0870700E-004  7.8065400E-003  1.1934700E-004
  1.6273100E-004  8.1431100E-003  1.1984600E-004
  1.1378000E-004  8.4479700E-003  1.2007200E-004
  6.2485900E-005  8.7210800E-003  1.2002800E-004
  9.1381100E-006  8.9626000E-003  1.1971600E-004
 -4.5723000E-005  9.1726200E-003  1.1914200E-004
 -1.0169700E-004  9.3514900E-003  1.1830700E-004
 -1.5838200E-004  9.4994700E-003  1.1721700E-004
 -2.1526800E-004  9.6170500E-003  1.1587500E-004
 -2.7208900E-004  9.7046500E-003  1.1428500E-004
 -3.2827600E-004  9.7629300E-003  1.1245200E-004
 -3.8364900E-004  9.7924300E-003  1.1037900E-004
 -4.3766200E-004  9.7939600E-003  1.0807100E-004
 -4.9015100E-004  9.7681800E-003  1.0553000E-004
 -5.4067200E-004  9.7160300E-003  1.0276100E-004
 -5.8902100E-004  9.6382900E-003  9.9767600E-005
 -6.3491100E-004  9.5360200E-003  9.6552500E-005
 -6.7806900E-004  9.4100800E-003  9.3119300E-005
 -7.1837900E-004  9.2616900E-003  8.9471500E-005
 -7.5550800E-004  9.0917200E-003  8.5612300E-005
 -7.8948500E-004  8.9015600E-003  8.1545200E-005
 -8.1996600E-004  8.6921000E-003  7.7274000E-005
 -8.4706000E-004  8.4648600E-003  7.2802300E-005
 -8.7047700E-004  8.2207200E-003  6.8134600E-005
 -8.9034300E-004  7.9614000E-003  6.3275200E-005
 -9.0646700E-004  7.6876700E-003  5.8229500E-005
 -9.1895300E-004  7.4014800E-003  5.3003100E-005
 -9.2772700E-004  7.1034900E-003  4.7602900E-005
 -9.3286200E-004  6.7958700E-003  4.2036200E-005
 -9.3437400E-004  6.4791000E-003  3.6311900E-005
 -9.3234200E-004  6.1556500E-003  3.0440000E-005
 -9.2680600E-004  5.8257700E-003  2.4432300E-005
 -9.1792000E-004  5.4922400E-003  1.8302600E-005
 -9.0564900E-004  5.1550200E-003  1.2067100E-005