# vtk DataFile Version 3.0
MMH: CalculiX output 'object.frd' file to 'vtk' format
ASCII
DATASET UNSTRUCTURED_GRID
POINTS 3232 double
 6.00000000E-001 2.10000000E-001 0.00000000E+000
 6.00000000E-001 2.08667000E-001 0.00000000E+000
 6.00000000E-001 2.07333000E-001 0.00000000E+000
 6.00000000E-001 2.06000000E-001 0.00000000E+000
 6.00000000E-001 2.04667000E-001 0.00000000E+000
 6.00000000E-001 2.03333000E-001 0.00000000E+000
 6.00000000E-001 2.02000000E-001 0.00000000E+000
 6.00000000E-001 2.00667000E-001 0.00000000E+000
 6.00000000E-001 1.99333000E-001 0.00000000E+000
 6.00000000E-001 1.98000000E-001 0.00000000E+000
 6.00000000E-001 1.96667000E-001 0.00000000E+000
 6.00000000E-001 1.95333000E-001 0.00000000E+000
 6.00000000E-001 1.94000000E-001 0.00000000E+000
 6.00000000E-001 1.92667000E-001 0.00000000E+000
 6.00000000E-001 1.91333000E-001 0.00000000E+000
 6.00000000E-001 1.90000000E-001 0.00000000E+000
 5.96490000E-001 1.90000000E-001 0.00000000E+000
 5.92980000E-001 1.90000000E-001 0.00000000E+000
 5.89470000E-001 1.90000000E-001 0.00000000E+000
 5.85960000E-001 1.90000000E-001 0.00000000E+000
 5.82449000E-001 1.90000000E-001 0.00000000E+000
 5.78939000E-001 1.90000000E-001 0.00000000E+000
 5.75429000E-001 1.90000000E-001 0.00000000E+000
 5.71919000E-001 1.90000000E-001 0.00000000E+000
 5.68409000E-001 1.90000000E-001 0.00000000E+000
 5.64899000E-001 1.90000000E-001 0.00000000E+000
 5.61389000E-001 1.90000000E-001 0.00000000E+000
 5.57879000E-001 1.90000000E-001 0.00000000E+000
 5.54369000E-001 1.90000000E-001 0.00000000E+000
 5.50859000E-001 1.90000000E-001 0.00000000E+000
 5.47348000E-001 1.90000000E-001 0.00000000E+000
 5.43838000E-001 1.90000000E-001 0.00000000E+000
 5.40328000E-001 1.90000000E-001 0.00000000E+000
 5.36818000E-001 1.90000000E-001 0.00000000E+000
 5.33308000E-001 1.90000000E-001 0.00000000E+000
 5.29798000E-001 1.90000000E-001 0.00000000E+000
 5.26288000E-001 1.90000000E-001 0.00000000E+000
 5.22778000E-001 1.90000000E-001 0.00000000E+000
 5.19268000E-001 1.90000000E-001 0.00000000E+000
 5.15758000E-001 1.90000000E-001 0.00000000E+000
 5.12247000E-001 1.90000000E-001 0.00000000E+000
 5.08737000E-001 1.90000000E-001 0.00000000E+000
 5.05227000E-001 1.90000000E-001 0.00000000E+000
 5.01717000E-001 1.90000000E-001 0.00000000E+000
 4.98207000E-001 1.90000000E-001 0.00000000E+000
 4.94697000E-001 1.90000000E-001 0.00000000E+000
 4.91187000E-001 1.90000000E-001 0.00000000E+000
 4.87677000E-001 1.90000000E-001 0.00000000E+000
 4.84167000E-001 1.90000000E-001 0.00000000E+000
 4.80657000E-001 1.90000000E-001 0.00000000E+000
 4.77146000E-001 1.90000000E-001 0.00000000E+000
 4.73636000E-001 1.90000000E-001 0.00000000E+000
 4.70126000E-001 1.90000000E-001 0.00000000E+000
 4.66616000E-001 1.90000000E-001 0.00000000E+000
 4.63106000E-001 1.90000000E-001 0.00000000E+000
 4.59596000E-001 1.90000000E-001 0.00000000E+000
 4.56086000E-001 1.90000000E-001 0.00000000E+000
 4.52576000E-001 1.90000000E-001 0.00000000E+000
 4.49066000E-001 1.90000000E-001 0.00000000E+000
 4.45556000E-001 1.90000000E-001 0.00000000E+000
 4.42045000E-001 1.90000000E-001 0.00000000E+000
 4.38535000E-001 1.90000000E-001 0.00000000E+000
 4.35025000E-001 1.90000000E-001 0.00000000E+000
 4.31515000E-001 1.90000000E-001 0.00000000E+000
 4.28005000E-001 1.90000000E-001 0.00000000E+000
 4.24495000E-001 1.90000000E-001 0.00000000E+000
 4.20985000E-001 1.90000000E-001 0.00000000E+000
 4.17475000E-001 1.90000000E-001 0.00000000E+000
 4.13965000E-001 1.90000000E-001 0.00000000E+000
 4.10455000E-001 1.90000000E-001 0.00000000E+000
 4.06944000E-001 1.90000000E-001 0.00000000E+000
 4.03434000E-001 1.90000000E-001 0.00000000E+000
 3.99924000E-001 1.90000000E-001 0.00000000E+000
 3.96414000E-001 1.90000000E-001 0.00000000E+000
 3.92904000E-001 1.90000000E-001 0.00000000E+000
 3.89394000E-001 1.90000000E-001 0.00000000E+000
 3.85884000E-001 1.90000000E-001 0.00000000E+000
 3.82374000E-001 1.90000000E-001 0.00000000E+000
 3.78864000E-001 1.90000000E-001 0.00000000E+000
 3.75353000E-001 1.90000000E-001 0.00000000E+000
 3.71843000E-001 1.90000000E-001 0.00000000E+000
 3.68333000E-001 1.90000000E-001 0.00000000E+000
 3.64823000E-001 1.90000000E-001 0.00000000E+000
 3.61313000E-001 1.90000000E-001 0.00000000E+000
 3.57803000E-001 1.90000000E-001 0.00000000E+000
 3.54293000E-001 1.90000000E-001 0.00000000E+000
 3.50783000E-001 1.90000000E-001 0.00000000E+000
 3.47273000E-001 1.90000000E-001 0.00000000E+000
 3.43763000E-001 1.90000000E-001 0.00000000E+000
 3.40252000E-001 1.90000000E-001 0.00000000E+000
 3.36742000E-001 1.90000000E-001 0.00000000E+000
 3.33232000E-001 1.90000000E-001 0.00000000E+000
 3.29722000E-001 1.90000000E-001 0.00000000E+000
 3.26212000E-001 1.90000000E-001 0.00000000E+000
 3.22702000E-001 1.90000000E-001 0.00000000E+000
 3.19192000E-001 1.90000000E-001 0.00000000E+000
 3.15682000E-001 1.90000000E-001 0.00000000E+000
 3.12172000E-001 1.90000000E-001 0.00000000E+000
 3.08661000E-001 1.90000000E-001 0.00000000E+000
 3.05151000E-001 1.90000000E-001 0.00000000E+000
 3.01641000E-001 1.90000000E-001 0.00000000E+000
 2.98131000E-001 1.90000000E-001 0.00000000E+000
 2.94621000E-001 1.90000000E-001 0.00000000E+000
 2.91111000E-001 1.90000000E-001 0.00000000E+000
 2.87601000E-001 1.90000000E-001 0.00000000E+000
 2.84091000E-001 1.90000000E-001 0.00000000E+000
 2.80581000E-001 1.90000000E-001 0.00000000E+000
 2.77071000E-001 1.90000000E-001 0.00000000E+000
 2.73560000E-001 1.90000000E-001 0.00000000E+000
 2.70050000E-001 1.90000000E-001 0.00000000E+000
 2.66540000E-001 1.90000000E-001 0.00000000E+000
 2.63030000E-001 1.90000000E-001 0.00000000E+000
 2.59520000E-001 1.90000000E-001 0.00000000E+000
 2.56010000E-001 1.90000000E-001 0.00000000E+000
 2.52500000E-001 1.90000000E-001 0.00000000E+000
 2.48990000E-001 1.90000000E-001 0.00000000E+000
 2.48990000E-001 1.91333000E-001 0.00000000E+000
 2.48990000E-001 1.92667000E-001 0.00000000E+000
 2.48990000E-001 1.94000000E-001 0.00000000E+000
 2.48990000E-001 1.95333000E-001 0.00000000E+000
 2.48990000E-001 1.96667000E-001 0.00000000E+000
 2.48990000E-001 1.98000000E-001 0.00000000E+000
 2.48990000E-001 1.99333000E-001 0.00000000E+000
 2.48990000E-001 2.00667000E-001 0.00000000E+000
 2.48990000E-001 2.02000000E-001 0.00000000E+000
 2.48990000E-001 2.03333000E-001 0.00000000E+000
 2.48990000E-001 2.04667000E-001 0.00000000E+000
 2.48990000E-001 2.06000000E-001 0.00000000E+000
 2.48990000E-001 2.07333000E-001 0.00000000E+000
 2.48990000E-001 2.08667000E-001 0.00000000E+000
 2.48990000E-001 2.10000000E-001 0.00000000E+000
 2.52500000E-001 2.10000000E-001 0.00000000E+000
 2.56010000E-001 2.10000000E-001 0.00000000E+000
 2.59520000E-001 2.10000000E-001 0.00000000E+000
 2.63030000E-001 2.10000000E-001 0.00000000E+000
 2.66540000E-001 2.10000000E-001 0.00000000E+000
 2.70050000E-001 2.10000000E-001 0.00000000E+000
 2.73560000E-001 2.10000000E-001 0.00000000E+000
 2.77071000E-001 2.10000000E-001 0.00000000E+000
 2.80581000E-001 2.10000000E-001 0.00000000E+000
 2.84091000E-001 2.10000000E-001 0.00000000E+000
 2.87601000E-001 2.10000000E-001 0.00000000E+000
 2.91111000E-001 2.10000000E-001 0.00000000E+000
 2.94621000E-001 2.10000000E-001 0.00000000E+000
 2.98131000E-001 2.10000000E-001 0.00000000E+000
 3.01641000E-001 2.10000000E-001 0.00000000E+000
 3.05151000E-001 2.10000000E-001 0.00000000E+000
 3.08661000E-001 2.10000000E-001 0.00000000E+000
 3.12172000E-001 2.10000000E-001 0.00000000E+000
 3.15682000E-001 2.10000000E-001 0.00000000E+000
 3.19192000E-001 2.10000000E-001 0.00000000E+000
 3.22702000E-001 2.10000000E-001 0.00000000E+000
 3.26212000E-001 2.10000000E-001 0.00000000E+000
 3.29722000E-001 2.10000000E-001 0.00000000E+000
 3.33232000E-001 2.10000000E-001 0.00000000E+000
 3.36742000E-001 2.10000000E-001 0.00000000E+000
 3.40252000E-001 2.10000000E-001 0.00000000E+000
 3.43763000E-001 2.10000000E-001 0.00000000E+000
 3.47273000E-001 2.10000000E-001 0.00000000E+000
 3.50783000E-001 2.10000000E-001 0.00000000E+000
 3.54293000E-001 2.10000000E-001 0.00000000E+000
 3.57803000E-001 2.10000000E-001 0.00000000E+000
 3.61313000E-001 2.10000000E-001 0.00000000E+000
 3.64823000E-001 2.10000000E-001 0.00000000E+000
 3.68333000E-001 2.10000000E-001 0.00000000E+000
 3.71843000E-001 2.10000000E-001 0.00000000E+000
 3.75353000E-001 2.10000000E-001 0.00000000E+000
 3.78864000E-001 2.10000000E-001 0.00000000E+000
 3.82374000E-001 2.10000000E-001 0.00000000E+000
 3.85884000E-001 2.10000000E-001 0.00000000E+000
 3.89394000E-001 2.10000000E-001 0.00000000E+000
 3.92904000E-001 2.10000000E-001 0.00000000E+000
 3.96414000E-001 2.10000000E-001 0.00000000E+000
 3.99924000E-001 2.10000000E-001 0.00000000E+000
 4.03434000E-001 2.10000000E-001 0.00000000E+000
 4.06944000E-001 2.10000000E-001 0.00000000E+000
 4.10455000E-001 2.10000000E-001 0.00000000E+000
 4.13965000E-001 2.10000000E-001 0.00000000E+000
 4.17475000E-001 2.10000000E-001 0.00000000E+000
 4.20985000E-001 2.10000000E-001 0.00000000E+000
 4.24495000E-001 2.10000000E-001 0.00000000E+000
 4.28005000E-001 2.10000000E-001 0.00000000E+000
 4.31515000E-001 2.10000000E-001 0.00000000E+000
 4.35025000E-001 2.10000000E-001 0.00000000E+000
 4.38535000E-001 2.10000000E-001 0.00000000E+000
 4.42045000E-001 2.10000000E-001 0.00000000E+000
 4.45556000E-001 2.10000000E-001 0.00000000E+000
 4.49066000E-001 2.10000000E-001 0.00000000E+000
 4.52576000E-001 2.10000000E-001 0.00000000E+000
 4.56086000E-001 2.10000000E-001 0.00000000E+000
 4.59596000E-001 2.10000000E-001 0.00000000E+000
 4.63106000E-001 2.10000000E-001 0.00000000E+000
 4.66616000E-001 2.10000000E-001 0.00000000E+000
 4.70126000E-001 2.10000000E-001 0.00000000E+000
 4.73636000E-001 2.10000000E-001 0.00000000E+000
 4.77146000E-001 2.10000000E-001 0.00000000E+000
 4.80657000E-001 2.10000000E-001 0.00000000E+000
 4.84167000E-001 2.10000000E-001 0.00000000E+000
 4.87677000E-001 2.10000000E-001 0.00000000E+000
 4.91187000E-001 2.10000000E-001 0.00000000E+000
 4.94697000E-001 2.10000000E-001 0.00000000E+000
[...]
POINT_DATA 3232
VECTORS DISP double
 -1.9835100E-004 -2.5991200E-002  6.5354000E-005
 -4.0573000E-004 -2.5975100E-002  6.5323400E-005
 -6.1452700E-004 -2.5958500E-002  6.5223100E-005
 -8.2249100E-004 -2.5942100E-002  6.5063500E-005
 -1.0308300E-003 -2.5925600E-002  6.4861700E-005
 -1.2389000E-003 -2.5909200E-002  6.4626300E-005
 -1.4470500E-003 -2.5892700E-002  6.4369800E-005
 -1.6551300E-003 -2.5876300E-002  6.4102800E-005
 -1.8632200E-003 -2.5859900E-002  6.3838200E-005
 -2.0712600E-003 -2.5843600E-002  6.3588000E-005
 -2.2792300E-003 -2.5827200E-002  6.3363000E-005
 -2.4873100E-003 -2.5810800E-002  6.3175000E-005
 -2.6950500E-003 -2.5794500E-002  6.3031400E-005
 -2.9032500E-003 -2.5778200E-002  6.2942500E-005
 -3.1102700E-003 -2.5761900E-002  6.2900300E-005
 -3.3195600E-003 -2.5746800E-002  6.2885900E-005
 -3.2762800E-003 -2.5196300E-002  6.2849600E-005
 -3.2349400E-003 -2.4649700E-002  6.2797000E-005
 -3.1920400E-003 -2.4100100E-002  6.2754900E-005
 -3.1498900E-003 -2.3552800E-002  6.2722900E-005
 -3.1070200E-003 -2.3004000E-002  6.2707300E-005
 -3.0644900E-003 -2.2456700E-002  6.2700000E-005
 -3.0215300E-003 -2.1908500E-002  6.2697900E-005
 -2.9787300E-003 -2.1361400E-002  6.2689400E-005
 -2.9356100E-003 -2.0813900E-002  6.2666200E-005
 -2.8925200E-003 -2.0267200E-002  6.2614900E-005
 -2.8491400E-003 -1.9720400E-002  6.2524300E-005
 -2.8056900E-003 -1.9174400E-002  6.2380300E-005
 -2.7619300E-003 -1.8628500E-002  6.2170900E-005
 -2.7180000E-003 -1.8083500E-002  6.1882200E-005
 -2.6737100E-003 -1.7538900E-002  6.1503100E-005
 -2.6291500E-003 -1.6995400E-002  6.1021700E-005
 -2.5841500E-003 -1.6452500E-002  6.0428200E-005
 -2.5387800E-003 -1.5911200E-002  5.9713900E-005
 -2.4928700E-003 -1.5370900E-002  5.8871500E-005
 -2.4465200E-003 -1.4832600E-002  5.7896300E-005
 -2.3995500E-003 -1.4295900E-002  5.6784100E-005
 -2.3520500E-003 -1.3761800E-002  5.5534000E-005
 -2.3038600E-003 -1.3230000E-002  5.4146000E-005
 -2.2550800E-003 -1.2701300E-002  5.2623000E-005
 -2.2055700E-003 -1.2176000E-002  5.0969100E-005
 -2.1554200E-003 -1.1654400E-002  4.9190700E-005
 -2.1045400E-003 -1.1137200E-002  4.7296000E-005
 -2.0529900E-003 -1.0624700E-002  4.5294500E-005
 -2.0007500E-003 -1.0117600E-002  4.3198200E-005
 -1.9478400E-003 -9.6162100E-003  4.1019300E-005
 -1.8943100E-003 -9.1212900E-003  3.8772700E-005
 -1.8401500E-003 -8.6331500E-003  3.6473000E-005
 -1.7854500E-003 -8.1526100E-003  3.4137000E-005
 -1.7302100E-003 -7.6800400E-003  3.1781300E-005
 -1.6745500E-003 -7.2161300E-003  2.9423500E-005
 -1.6184700E-003 -6.7614300E-003  2.7081600E-005
 -1.5620800E-003 -6.3164200E-003  2.4773200E-005
 -1.5054300E-003 -5.8818200E-003  2.2516800E-005
 -1.4486100E-003 -5.4579300E-003  2.0329100E-005
 -1.3917200E-003 -5.0455500E-003  1.8228300E-005
 -1.3348100E-003 -4.6448500E-003  1.6229800E-005
 -1.2780200E-003 -4.2566200E-003  1.4350200E-005
 -1.2213800E-003 -3.8810200E-003  1.2603200E-005
 -1.1650400E-003 -3.5186600E-003  1.1002900E-005
 -1.1090400E-003 -3.1697800E-003  9.5609900E-006
 -1.0535200E-003 -2.8347400E-003  8.2882900E-006
 -9.9852100E-004 -2.5139000E-003  7.1940100E-006
 -9.4416900E-004 -2.2073400E-003  6.2853000E-006
 -8.9052900E-004 -1.9155000E-003  5.5686100E-006
 -8.3768400E-004 -1.6382500E-003  5.0472200E-006
 -7.8573300E-004 -1.3760100E-003  4.7245300E-006
 -7.3471300E-004 -1.1285400E-003  4.6002400E-006
 -6.8474800E-004 -8.9613000E-004  4.6743400E-006
 -6.3584300E-004 -6.7854600E-004  4.9435100E-006
 -5.8813000E-004 -4.7582300E-004  5.4040900E-006
 -5.4160000E-004 -2.8784400E-004  6.0502400E-006
 -4.9637000E-004 -1.1432800E-004  6.8748300E-006
 -4.5244100E-004  4.4698300E-005  7.8699400E-006
 -4.0989600E-004  1.8981100E-004  9.0253100E-006
 -3.6876100E-004  3.2089300E-004  1.0331300E-005
 -3.2907300E-004  4.3870900E-004  1.1775200E-005
 -2.9089200E-004  5.4317500E-004  1.3345700E-005
 -2.5421000E-004  6.3508200E-004  1.5028500E-005
 -2.1911400E-004  7.1453600E-004  1.6810700E-005
 -1.8556500E-004  7.8219300E-004  1.8677400E-005
 -1.5365500E-004  8.3845700E-004  2.0613800E-005
 -1.2334300E-004  8.8376500E-004  2.2605100E-005
 -9.4700000E-005  9.1884200E-004  2.4635100E-005
 -6.7708400E-005  9.4391600E-004  2.6689200E-005
 -4.2391200E-005  9.5994400E-004  2.8750100E-005
 -1.8780100E-005  9.6707000E-004  3.0803600E-005
  3.1685900E-006  9.6629700E-004  3.2832200E-005
  2.3365500E-005  9.5787800E-004  3.4821400E-005
  4.1919100E-005  9.4264400E-004  3.6754000E-005
  5.8695100E-005  9.2114200E-004  3.8615200E-005
  7.3845300E-005  8.9386300E-004  4.0388700E-005
  8.7219100E-005  8.6174800E-004  4.2058500E-005
  9.8982800E-005  8.2488900E-004  4.3609200E-005
  1.0900000E-004  7.8459900E-004  4.5024000E-005
  1.1742100E-004  7.4064000E-004  4.6288000E-005
  1.2415200E-004  6.9455700E-004  4.7383100E-005
  1.2930700E-004  6.4595400E-004  4.8294000E-005
  1.3284900E-004  5.9638600E-004  4.9002100E-005
  1.3485500E-004  5.4550800E-004  4.9489900E-005
  1.3533000E-004  4.9469400E-004  4.9737700E-005
  1.3433800E-004  4.4377700E-004  4.9724500E-005
  1.3190600E-004  3.9387400E-004  4.9428300E-005
  1.2810100E-004  3.4498100E-004  4.8822700E-005
  1.2296100E-004  2.9804800E-004  4.7881600E-005
  1.1655500E-004  2.5304200E-004  4.6570100E-005
  1.0895500E-004  2.1101200E-004  4.4854900E-005
  1.0017600E-004  1.7154000E-004  4.2688800E-005
  9.0426600E-005  1.3619000E-004  4.0025400E-005
  7.9491200E-005  1.0367300E-004  3.6798500E-005
  6.7978300E-005  7.6608300E-005  3.2940200E-005
  5.5040200E-005  5.2222700E-005  2.8350100E-005
  4.2311900E-005  3.5026800E-005  2.2927900E-005
  2.7552100E-005  1.9526900E-005  1.6509500E-005
  1.5502000E-005  1.3868200E-005  8.9819400E-006
  0.0000000E+000  0.0000000E+000  0.0000000E+000
  0.0000000E+000  0.0000000E+000  0.0000000E+000
  0.0000000E+000  0.0000000E+000  0.0000000E+000
  0.0000000E+000  0.0000000E+000  0.0000000E+000
  0.0000000E+000  0.0000000E+000  0.0000000E+000
  0.0000000E+000  0.0000000E+000  0.0000000E+000
  0.0000000E+000  0.0000000E+000  0.0000000E+000
  0.0000000E+000  0.0000000E+000  0.0000000E+000
  0.0000000E+000  0.0000000E+000  0.0000000E+000
  0.0000000E+000  0.0000000E+000  0.0000000E+000
  0.0000000E+000  0.0000000E+000  0.0000000E+000
  0.0000000E+000  0.0000000E+000  0.0000000E+000
  0.0000000E+000  0.0000000E+000  0.0000000E+000
  0.0000000E+000  0.0000000E+000  0.0000000E+000
  0.0000000E+000  0.0000000E+000  0.0000000E+000
  0.0000000E+000  0.0000000E+000  0.0000000E+000
 -1.5887600E-005  1.6625200E-005  3.1600100E-007
 -2.6954200E-005  2.2169800E-005  1.7071100E-006
 -4.1566900E-005  3.8167000E-005  3.8080000E-006
 -5.3775600E-005  5.5051800E-005  6.5359400E-006
 -6.6611200E-005  7.9612200E-005  9.7344600E-006
 -7.7851800E-005  1.0623600E-004  1.3320700E-005
 -8.8739600E-005  1.3896800E-004  1.7204100E-005
 -9.8371300E-005  1.7377800E-004  2.1327400E-005
 -1.0715300E-004  2.1353900E-004  2.5635300E-005
 -1.1476900E-004  2.5500600E-004  3.0088300E-005
 -1.2121900E-004  3.0031500E-004  3.4651500E-005
 -1.2648500E-004  3.4678700E-004  3.9296900E-005
 -1.3036400E-004  3.9591500E-004  4.4001000E-005
 -1.3298600E-004  4.4557100E-004  4.8744100E-005
 -1.3405900E-004  4.9660400E-004  5.3508700E-005
 -1.3377400E-004  5.4744300E-004  5.8280700E-005
 -1.3182500E-004  5.9831600E-004  6.3046000E-005
 -1.2840500E-004  6.4816500E-004  6.7794000E-005
 -1.2324800E-004  6.9669300E-004  7.2512400E-005
 -1.1650600E-004  7.4322100E-004  7.7192700E-005
 -1.0799000E-004  7.8712200E-004  8.1823500E-005
 -9.7788400E-005  8.2787800E-004  8.6397500E-005
 -8.5803600E-005  8.6478400E-004  9.0904100E-005
 -7.2067300E-005  8.9724600E-004  9.5335700E-005
 -5.6557000E-005  9.2470700E-004  9.9682900E-005
 -3.9275700E-005  9.4633100E-004  1.0393700E-004
 -2.0246700E-005  9.6183700E-004  1.0809000E-004
  5.1761400E-007  9.7009600E-004  1.1213200E-004
  2.2982400E-005  9.7110600E-004  1.1605600E-004
  4.7089900E-005  9.6353300E-004  1.1985100E-004
  7.2824100E-005  9.4751700E-004  1.2351000E-004
  1.0005600E-004  9.2172800E-004  1.2702200E-004
  1.2879800E-004  8.8622700E-004  1.3038000E-004
  1.5885300E-004  8.3993500E-004  1.3357400E-004
  1.9024300E-004  7.8263400E-004  1.3659600E-004
  2.2273300E-004  7.1367200E-004  1.3943700E-004
  2.5631700E-004  6.3245400E-004  1.4208800E-004
  2.9076300E-004  5.3880700E-004  1.4454200E-004
  3.2600200E-004  4.3180500E-004  1.4678900E-004
  3.6183700E-004  3.1165600E-004  1.4882400E-004
  3.9811100E-004  1.7729300E-004  1.5063700E-004
  4.3468500E-004  2.9072500E-005  1.5222500E-004
  4.7131500E-004 -1.3392000E-004  1.5357900E-004
  5.0790600E-004 -3.1145400E-004  1.5469500E-004
  5.4416500E-004 -5.0403400E-004  1.5557000E-004
  5.8000100E-004 -7.1174100E-004  1.5619800E-004
  6.1512700E-004 -9.3454000E-004  1.5658000E-004
  6.4941500E-004 -1.1728600E-003  1.5671300E-004
  6.8263300E-004 -1.4261600E-003  1.5659800E-004
  7.1458600E-004 -1.6950800E-003  1.5623500E-004
  7.4512900E-004 -1.9787900E-003  1.5562900E-004
  7.7400100E-004 -2.2779000E-003  1.5478200E-004
  8.0113400E-004 -2.5915400E-003  1.5370200E-004
  8.2624400E-004 -2.9200100E-003  1.5239600E-004
  8.4930100E-004 -3.2626600E-003  1.5087100E-004
  8.7005100E-004 -3.6193300E-003  1.4913900E-004
  8.8846400E-004 -3.9896700E-003  1.4721000E-004
  9.0436100E-004 -4.3730600E-003  1.4509800E-004
  9.1768200E-004 -4.7694200E-003  1.4281600E-004
  9.2835400E-004 -5.1777800E-003  1.4038100E-004
  9.3627700E-004 -5.5981800E-003  1.3780600E-004
  9.4148000E-004 -6.0295200E-003  1.3511000E-004
  9.4384900E-004 -6.4717700E-003  1.3231000E-004
  9.4347600E-004 -6.9239100E-003  1.2942300E-004
  9.4027900E-004 -7.3856800E-003  1.2646700E-004
  9.3436900E-004 -7.8563100E-003  1.2346100E-004
  9.2572500E-004 -8.3352400E-003  1.2042300E-004
  9.1445100E-004 -8.8219600E-003  1.1736900E-004
  9.0060200E-004 -9.3157100E-003  1.1431900E-004
  8.8426000E-004 -9.8161400E-003  1.1128700E-004
  8.6554900E-004 -1.0322400E-002  1.0829000E-004
  8.4453800E-004 -1.0834300E-002  1.0534300E-004
  8.2139400E-004 -1.1350900E-002  1.0245900E-004
  7.9618700E-004 -1.1872100E-002  9.9651300E-005
  7.6910000E-004 -1.2397100E-002  9.6931300E-005
  7.4022000E-004 -1.2925700E-002  9.4309000E-005
  7.0971900E-004 -1.3457300E-002  9.1792700E-005
  6.7771100E-004 -1.3991500E-002  8.9389900E-005
  6.4433900E-004 -1.4528100E-002  8.7106000E-005
  6.0974400E-004 -1.5066600E-002  8.4945400E-005
  5.7403500E-004 -1.5606900E-002  8.2910500E-005
  5.3736500E-004 -1.6148500E-002  8.1003200E-005
  4.9981700E-004 -1.6691400E-002  7.9222900E-005
  4.6154000E-004 -1.7235200E-002  7.7568800E-005
  4.2259700E-004 -1.7779900E-002  7.6038300E-005
  3.8311800E-004 -1.8325300E-002  7.4628200E-005
  3.4315400E-004 -1.8871200E-002  7.3334500E-005
  3.0280300E-004 -1.9417600E-002  7.2152200E-005
  2.6211200E-004 -1.9964400E-002  7.1076800E-005
  2.2113700E-004 -2.0511500E-002  7.0102700E-005
  1.7993100E-004 -2.1058900E-002  6.9225600E-005
  1.3849800E-004 -2.1606500E-002  6.8440600E-005
  9.6916300E-005 -2.2154400E-002  6.7744700E-005
  5.5110900E-005 -2.2702200E-002  6.7135300E-005
  1.3242200E-005 -2.3250400E-002  6.6612000E-005
 -2.8910900E-005 -2.3798300E-002  6.6175300E-005
 -7.0951400E-005 -2.4346800E-002  6.5828000E-005
 -1.1344500E-004 -2.4894600E-002  6.5573100E-005
 -1.5532100E-004 -2.5443400E-002  6.5411200E-005
 -3.6404800E-004 -2.5426600E-002  6.5377400E-005
 -3.2132400E-004 -2.4878400E-002  6.5536600E-005
 -2.7927100E-004 -2.4330200E-002  6.5790200E-005
 -2.3694300E-004 -2.3782100E-002  6.6133700E-005
 -1.9491200E-004 -2.3233800E-002  6.6565600E-005
 -1.5290500E-004 -2.2685800E-002  6.7082900E-005
 -1.1108300E-004 -2.2137800E-002  6.7685200E-005
 -6.9396500E-005 -2.1590000E-002  6.8372900E-005
 -2.7876000E-005 -2.1042400E-002  6.9148300E-005
  1.3445800E-005 -2.0495000E-002  7.0014500E-005
  5.4561500E-005 -1.9947800E-002  7.0975800E-005
  9.5410000E-005 -1.9401000E-002  7.2036600E-005
  1.3596600E-004 -1.8854600E-002  7.3202000E-005
  1.7615700E-004 -1.8308600E-002  7.4476500E-005
  2.1593100E-004 -1.7763200E-002  7.5864700E-005
  2.5520400E-004 -1.7218400E-002  7.7370300E-005
  2.9390200E-004 -1.6674500E-002  7.8996600E-005
  3.3192400E-004 -1.6131600E-002  8.0745800E-005
  3.6918200E-004 -1.5589800E-002  8.2618900E-005
  4.0555500E-004 -1.5049500E-002  8.4615900E-005
  4.4095100E-004 -1.4510900E-002  8.6735300E-005
  4.7522500E-004 -1.3974300E-002  8.8974600E-005
  5.0829000E-004 -1.3439900E-002  9.1329400E-005
  5.3998200E-004 -1.2908300E-002  9.3794400E-005
  5.7022000E-004 -1.2379700E-002  9.6362300E-005
  5.9883300E-004 -1.1854500E-002  9.9025000E-005
  6.2573800E-004 -1.1333400E-002  1.0177200E-004
  6.5078200E-004 -1.0816600E-002  1.0459400E-004
  6.7386800E-004 -1.0304800E-002  1.0747600E-004
  6.9488200E-004 -9.7984300E-003  1.1040700E-004
  7.1370600E-004 -9.2981000E-003  1.1337100E-004
  7.3027900E-004 -8.8042900E-003  1.1635300E-004
  7.4446500E-004 -8.3176700E-003  1.1933700E-004
  7.5626000E-004 -7.8387900E-003  1.2230500E-004
  7.6552400E-004 -7.3682300E-003  1.2524200E-004
  7.7229300E-004 -6.9066400E-003  1.2812900E-004
  7.7645800E-004 -6.4545100E-003  1.3094900E-004
  7.7806700E-004 -6.0126000E-003  1.3368400E-004
  7.7707600E-004 -5.5812400E-003  1.3631700E-004
  7.7351700E-004 -5.1612700E-003  1.3883100E-004
  7.6743900E-004 -4.7529300E-003  1.4120900E-004
  7.5883900E-004 -4.3570100E-003  1.4343700E-004
  7.4786800E-004 -3.9737600E-003  1.4549900E-004
  7.3449400E-004 -3.6037800E-003  1.4738200E-004
  7.1894400E-004 -3.2474200E-003  1.4907300E-004
  7.0119300E-004 -2.9050300E-003  1.5056100E-004
  6.8149200E-004 -2.5770500E-003  1.5183700E-004
  6.5987100E-004 -2.2635600E-003  1.5289100E-004
  6.3655200E-004 -1.9650800E-003  1.5371700E-004
  6.1165700E-004 -1.6814600E-003  1.5430900E-004
  5.8533700E-004 -1.4132100E-003  1.5466200E-004
  5.5782200E-004 -1.1600400E-003  1.5477500E-004
  5.2918600E-004 -9.2232900E-004  1.5464500E-004
  4.9974100E-004 -6.9979600E-004  1.5427200E-004
  4.6950800E-004 -4.9254800E-004  1.5365700E-004
  4.3883400E-004 -3.0040400E-004  1.5280200E-004
  4.0773500E-004 -1.2316600E-004  1.5171100E-004
  3.7652500E-004  3.9238800E-005  1.5038700E-004
  3.4526500E-004  1.8728300E-004  1.4883600E-004
  3.1418700E-004  3.2098300E-004  1.4706200E-004
  2.8342700E-004  4.4098400E-004  1.4507300E-004
  2.5310800E-004  5.4735500E-004  1.4287500E-004
  2.2344200E-004  6.4077900E-004  1.4047500E-004
  1.9445600E-004  7.2148900E-004  1.3788000E-004
  1.6639900E-004  7.9008300E-004  1.3510000E-004
  1.3924800E-004  8.4704100E-004  1.3214200E-004
  1.1323700E-004  8.9280700E-004  1.2901500E-004
  8.8342700E-005  9.2811300E-004  1.2572600E-004
  6.4732200E-005  9.5325900E-004  1.2228500E-004
  4.2427200E-005  9.6916800E-004  1.1870000E-004
  2.1493700E-005  9.7605600E-004  1.1498000E-004
  2.0195300E-006  9.7494000E-004  1.1113200E-004
 -1.6034400E-005  9.6604000E-004  1.0716700E-004
 -3.2525700E-005  9.5035500E-004  1.0309200E-004
 -4.7568600E-005  9.2818800E-004  9.8916100E-005
 -6.1002600E-005  9.0044800E-004  9.4647000E-005
 -7.2973600E-005  8.6754300E-004  9.0293400E-005
 -8.3345300E-005  8.3028200E-004  8.5863800E-005
 -9.2248800E-005  7.8913900E-004  8.1366500E-005
 -9.9611300E-005  7.4487700E-004  7.6810500E-005
 -1.0551100E-004  6.9793400E-004  7.2204300E-005
 -1.0996400E-004  6.4913800E-004  6.7557400E-005
 -1.1297900E-004  5.9875500E-004  6.2879400E-005
 -1.1466100E-004  5.4779800E-004  5.8181000E-005
 -1.1495100E-004  4.9623000E-004  5.3473500E-005
 -1.1403400E-004  4.4536400E-004  4.8769700E-005
 -1.1178900E-004  3.9474500E-004  4.4084000E-005
 -1.0848300E-004  3.4607000E-004  3.9432900E-005
 -1.0390600E-004  2.9838300E-004  3.4835900E-005
 -9.8454500E-005  2.5383600E-004  3.0315500E-005
 -9.1744600E-005  2.1088700E-004  2.5899500E-005
 -8.4443500E-005  1.7223300E-004  2.1620800E-005
 -7.5770600E-005  1.3561800E-004  1.7519900E-005
 -6.6986900E-005  1.0445200E-004  1.3646800E-005
 -5.6453600E-005  7.5526300E-005  1.0062400E-005
 -4.6692600E-005  5.3277700E-005  6.8456700E-006
 -3.4294300E-005  3.3202500E-005  4.0870300E-006
 -2.4458500E-005  2.0934800E-005  1.9160200E-006
 -1.0310100E-005  1.0631100E-005  4.3064600E-007
 -5.7184700E-004 -2.5410200E-002  6.5276500E-005
 -5.2978800E-004 -2.4862000E-002  6.5431500E-005
 -4.8723600E-004 -2.4313800E-002  6.5678900E-005
 -4.4516500E-004 -2.3765600E-002  6.6012400E-005
 -4.0292800E-004 -2.3217400E-002  6.6430100E-005
 -3.6096300E-004 -2.2669300E-002  6.6930300E-005
 -3.1902800E-004 -2.2121300E-002  6.7511900E-005
 -2.7727500E-004 -2.1573500E-002  6.8175800E-005
 -2.3565100E-004 -2.1025900E-002  6.8923500E-005
 -1.9420000E-004 -2.0478400E-002  6.9757900E-005
 -1.5294500E-004 -1.9931300E-002  7.0682400E-005
 -1.1191200E-004 -1.9384500E-002  7.1701000E-005
 -7.1150100E-005 -1.8838000E-002  7.2817800E-005
 -3.0701500E-005 -1.8292000E-002  7.4036900E-005
  9.3744400E-006 -1.7746500E-002  7.5362000E-005
  4.9011300E-005 -1.7201700E-002  7.6796600E-005
  8.8138800E-005 -1.6657800E-002  7.8343100E-005
  1.2667400E-004 -1.6114800E-002  8.0003400E-005
  1.6452600E-004 -1.5573000E-002  8.1778200E-005
  2.0160800E-004 -1.5032700E-002  8.3667200E-005
  2.3780300E-004 -1.4494000E-002  8.5669100E-005
  2.7303200E-004 -1.3957300E-002  8.7781100E-005
  3.0714600E-004 -1.3423000E-002  8.9999200E-005
  3.4008200E-004 -1.2891300E-002  9.2318000E-005
  3.7166900E-004 -1.2362600E-002  9.4731100E-005
  4.0184900E-004 -1.1837500E-002  9.7230500E-005
  4.3045200E-004 -1.1316300E-002  9.9807100E-005
  4.5741500E-004 -1.0799600E-002  1.0245100E-004
  4.8259300E-004 -1.0287800E-002  1.0514900E-004
  5.0589800E-004 -9.7814500E-003  1.0789100E-004
  5.2724200E-004 -9.2811500E-003  1.1066200E-004
  5.4649700E-004 -8.7874400E-003  1.1344900E-004
  5.6364600E-004 -8.3009200E-003  1.1623500E-004
  5.7853100E-004 -7.8221400E-003  1.1900700E-004
  5.9119400E-004 -7.3517500E-003  1.2174700E-004
  6.0147600E-004 -6.8902900E-003  1.2444000E-004
  6.0945300E-004 -6.4384100E-003  1.2706900E-004
  6.1500600E-004 -5.9966400E-003  1.2961800E-004
  6.1820200E-004 -5.5655900E-003  1.3207200E-004
  6.1901000E-004 -5.1457900E-003  1.3441300E-004
  6.1745000E-004 -4.7378000E-003  1.3662900E-004
  6.1361100E-004 -4.3421200E-003  1.3870300E-004
  6.0745200E-004 -3.9592100E-003  1.4062300E-004
  5.9917500E-004 -3.5895500E-003  1.4237600E-004
  5.8870000E-004 -3.2335200E-003  1.4395000E-004
  5.7630000E-004 -2.8915200E-003  1.4533600E-004
  5.6190800E-004 -2.5638400E-003  1.4652300E-004
  5.4580100E-004 -2.2508100E-003  1.4750400E-004
  5.2798700E-004 -1.9526100E-003  1.4827200E-004
  5.0867800E-004 -1.6694900E-003  1.4882300E-004
  4.8800600E-004 -1.4015100E-003  1.4915100E-004
  4.6607800E-004 -1.1488400E-003  1.4925500E-004
  4.4315400E-004 -9.1144200E-004  1.4913200E-004
  4.1924200E-004 -6.8935200E-004  1.4878400E-004
  3.9469300E-004 -4.8247500E-004  1.4820900E-004
  3.6946100E-004 -2.9071100E-004  1.4741000E-004
  3.4391300E-004 -1.1389700E-004  1.4639100E-004
  3.1802100E-004  4.8186100E-005  1.4515300E-004
  2.9208800E-004  1.9577500E-004  1.4370300E-004
  2.6616600E-004  3.2918500E-004  1.4204400E-004
  2.4043600E-004  4.4873400E-004  1.4018200E-004
  2.1505900E-004  5.5481200E-004  1.3812400E-004
  1.9008100E-004  6.4782100E-004  1.3587500E-004
  1.6575400E-004  7.2820200E-004  1.3344400E-004
  1.4202400E-004  7.9644700E-004  1.3083600E-004
  1.1917900E-004  8.5302200E-004  1.2805900E-004
  9.7125200E-005  8.9850800E-004  1.2512100E-004
  7.6115800E-005  9.3338100E-004  1.2202900E-004
  5.6089200E-005  9.5830100E-004  1.1879100E-004
  3.7200700E-005  9.7374400E-004  1.1541500E-004
  1.9465600E-005  9.8043700E-004  1.1190700E-004
  2.9160200E-006  9.7884600E-004  1.0827700E-004
 -1.2348900E-005  9.6975300E-004  1.0453100E-004
 -2.6404800E-005  9.5360900E-004  1.0067800E-004
 -3.9100900E-005  9.3123400E-004  9.6724000E-005
 -5.0568800E-005  9.0305700E-004  9.2677300E-005
 -6.0666000E-005  8.6993200E-004  8.8545300E-005
 -6.9513900E-005  8.3224500E-004  8.4335500E-005