# vtk DataFile Version 3.0
MMH: CalculiX output 'object.frd' file to 'vtk' format
ASCII
DATASET UNSTRUCTURED_GRID
POINTS 3232 double
 6.00000000E-001 2.10000000E-001 0.00000000E+000
 6.00000000E-001 2.08667000E-001 0.00000000E+000
 6.00000000E-001 2.07333000E-001 0.00000000E+000
 6.00000000E-001 2.06000000E-001 0.00000000E+000
 6.00000000E-001 2.04667000E-001 0.00000000E+000
 6.00000000E-001 2.03333000E-001 0.00000000E+000
 6.00000000E-001 2.02000000E-001 0.00000000E+000
 6.00000000E-001 2.00667000E-001 0.00000000E+000
 6.00000000E-001 1.99333000E-001 0.00000000E+000
 6.00000000E-001 1.98000000E-001 0.00000000E+000
 6.00000000E-001 1.96667000E-001 0.00000000E+000
 6.00000000E-001 1.95333000E-001 0.00000000E+000
 6.00000000E-001 1.94000000E-001 0.00000000E+000
 6.00000000E-001 1.92667000E-001 0.00000000E+000
 6.00000000E-001 1.91333000E-001 0.00000000E+000
 6.00000000E-001 1.90000000E-001 0.00000000E+000
 5.96490000E-001 1.90000000E-001 0.00000000E+000
 5.92980000E-001 1.90000000E-001 0.00000000E+000
 5.89470000E-001 1.90000000E-001 0.00000000E+000
 5.85960000E-001 1.90000000E-001 0.00000000E+000
 5.82449000E-001 1.90000000E-001 0.00000000E+000
 5.78939000E-001 1.90000000E-001 0.00000000E+000
 5.75429000E-001 1.90000000E-001 0.00000000E+000
 5.71919000E-001 1.90000000E-001 0.00000000E+000
 5.68409000E-001 1.90000000E-001 0.00000000E+000
 5.64899000E-001 1.90000000E-001 0.00000000E+000
 5.61389000E-001 1.90000000E-001 0.00000000E+000
 5.57879000E-001 1.90000000E-001 0.00000000E+000
 5.54369000E-001 1.90000000E-001 0.00000000E+000
 5.50859000E-001 1.90000000E-001 0.00000000E+000
 5.47348000E-001 1.90000000E-001 0.00000000E+000
 5.43838000E-001 1.90000000E-001 0.00000000E+000
 5.40328000E-001 1.90000000E-001 0.00000000E+000
 5.36818000E-001 1.90000000E-001 0.00000000E+000
 5.33308000E-001 1.90000000E-001 0.00000000E+000
 5.29798000E-001 1.90000000E-001 0.00000000E+000
 5.26288000E-001 1.90000000E-001 0.00000000E+000
 5.22778000E-001 1.90000000E-001 0.00000000E+000
 5.19268000E-001 1.90000000E-001 0.00000000E+000
 5.15758000E-001 1.90000000E-001 0.00000000E+000
 5.12247000E-001 1.90000000E-001 0.00000000E+000
 5.08737000E-001 1.90000000E-001 0.00000000E+000
 5.05227000E-001 1.90000000E-001 0.00000000E+000
 5.01717000E-001 1.90000000E-001 0.00000000E+000
 4.98207000E-001 1.90000000E-001 0.00000000E+000
 4.94697000E-001 1.90000000E-001 0.00000000E+000
 4.91187000E-001 1.90000000E-001 0.00000000E+000
 4.87677000E-001 1.90000000E-001 0.00000000E+000
 4.84167000E-001 1.90000000E-001 0.00000000E+000
 4.80657000E-001 1.90000000E-001 0.00000000E+000
 4.77146000E-001 1.90000000E-001 0.00000000E+000
 4.73636000E-001 1.90000000E-001 0.00000000E+000
 4.70126000E-001 1.90000000E-001 0.00000000E+000
 4.66616000E-001 1.90000000E-001 0.00000000E+000
 4.63106000E-001 1.90000000E-001 0.00000000E+000
 4.59596000E-001 1.90000000E-001 0.00000000E+000
 4.56086000E-001 1.90000000E-001 0.00000000E+000
 4.52576000E-001 1.90000000E-001 0.00000000E+000
 4.49066000E-001 1.90000000E-001 0.00000000E+000
 4.45556000E-001 1.90000000E-001 0.00000000E+000
 4.42045000E-001 1.90000000E-001 0.00000000E+000
 4.38535000E-001 1.90000000E-001 0.00000000E+000
 4.35025000E-001 1.90000000E-001 0.00000000E+000
 4.31515000E-001 1.90000000E-001 0.00000000E+000
 4.28005000E-001 1.90000000E-001 0.00000000E+000
 4.24495000E-001 1.90000000E-001 0.00000000E+000
 4.20985000E-001 1.90000000E-001 0.00000000E+000
 4.17475000E-001 1.90000000E-001 0.00000000E+000
 4.13965000E-001 1.90000000E-001 0.00000000E+000
 4.10455000E-001 1.90000000E-001 0.00000000E+000
 4.06944000E-001 1.90000000E-001 0.00000000E+000
 4.03434000E-001 1.90000000E-001 0.00000000E+000
 3.99924000E-001 1.90000000E-001 0.00000000E+000
 3.96414000E-001 1.90000000E-001 0.00000000E+000
 3.92904000E-001 1.90000000E-001 0.00000000E+000
 3.89394000E-001 1.90000000E-001 0.00000000E+000
 3.85884000E-001 1.90000000E-001 0.00000000E+000
 3.82374000E-001 1.90000000E-001 0.00000000E+000
 3.78864000E-001 1.90000000E-001 0.00000000E+000
 3.75353000E-001 1.90000000E-001 0.00000000E+000
 3.71843000E-001 1.90000000E-001 0.00000000E+000
 3.68333000E-001 1.90000000E-001 0.00000000E+000
 3.64823000E-001 1.90000000E-001 0.00000000E+000
 3.61313000E-001 1.90000000E-001 0.00000000E+000
 3.57803000E-001 1.90000000E-001 0.00000000E+000
 3.54293000E-001 1.90000000E-001 0.00000000E+000
 3.50783000E-001 1.90000000E-001 0.00000000E+000
 3.47273000E-001 1.90000000E-001 0.00000000E+000
 3.43763000E-001 1.90000000E-001 0.00000000E+000
 3.40252000E-001 1.90000000E-001 0.00000000E+000
 3.36742000E-001 1.90000000E-001 0.00000000E+000
 3.33232000E-001 1.90000000E-001 0.00000000E+000
 3.29722000E-001 1.90000000E-001 0.00000000E+000
 3.26212000E-001 1.90000000E-001 0.00000000E+000
 3.22702000E-001 1.90000000E-001 0.00000000E+000
 3.19192000E-001 1.90000000E-001 0.00000000E+000
 3.15682000E-001 1.90000000E-001 0.00000000E+000
 3.12172000E-001 1.90000000E-001 0.00000000E+000
 3.08661000E-001 1.90000000E-001 0.00000000E+000
 3.05151000E-001 1.90000000E-001 0.00000000E+000
 3.01641000E-001 1.90000000E-001 0.00000000E+000
 2.98131000E-001 1.90000000E-001 0.00000000E+000
 2.94621000E-001 1.90000000E-001 0.00000000E+000
 2.91111000E-001 1.90000000E-001 0.00000000E+000
 2.87601000E-001 1.90000000E-001 0.00000000E+000
 2.84091000E-001 1.90000000E-001 0.00000000E+000
 2.80581000E-001 1.90000000E-001 0.00000000E+000
 2.77071000E-001 1.90000000E-001 0.00000000E+000
 2.73560000E-001 1.90000000E-001 0.00000000E+000
 2.70050000E-001 1.90000000E-001 0.00000000E+000
 2.66540000E-001 1.90000000E-001 0.00000000E+000
 2.63030000E-001 1.90000000E-001 0.00000000E+000
 2.59520000E-001 1.90000000E-001 0.00000000E+000
 2.56010000E-001 1.90000000E-001 0.00000000E+000
 2.52500000E-001 1.90000000E-001 0.00000000E+000
 2.48990000E-001 1.90000000E-001 0.00000000E+000
 2.48990000E-001 1.91333000E-001 0.00000000E+000
 2.48990000E-001 1.92667000E-001 0.00000000E+000
 2.48990000E-001 1.94000000E-001 0.00000000E+000
 2.48990000E-001 1.95333000E-001 0.00000000E+000
 2.48990000E-001 1.96667000E-001 0.00000000E+000
 2.48990000E-001 1.98000000E-001 0.00000000E+000
 2.48990000E-001 1.99333000E-001 0.00000000E+000
 2.48990000E-001 2.00667000E-001 0.00000000E+000
 2.48990000E-001 2.02000000E-001 0.00000000E+000
 2.48990000E-001 2.03333000E-001 0.00000000E+000
 2.48990000E-001 2.04667000E-001 0.00000000E+000
 2.48990000E-001 2.06000000E-001 0.00000000E+000
 2.48990000E-001 2.07333000E-001 0.00000000E+000
 2.48990000E-001 2.08667000E-001 0.00000000E+000
 2.48990000E-001 2.10000000E-001 0.00000000E+000
 2.52500000E-001 2.10000000E-001 0.00000000E+000
 2.56010000E-001 2.10000000E-001 0.00000000E+000
 2.59520000E-001 2.10000000E-001 0.00000000E+000
 2.63030000E-001 2.10000000E-001 0.00000000E+000
 2.66540000E-001 2.10000000E-001 0.00000000E+000
 2.70050000E-001 2.10000000E-001 0.00000000E+000
 2.73560000E-001 2.10000000E-001 0.00000000E+000
 2.77071000E-001 2.10000000E-001 0.00000000E+000
 2.80581000E-001 2.10000000E-001 0.00000000E+000
 2.84091000E-001 2.10000000E-001 0.00000000E+000
 2.87601000E-001 2.10000000E-001 0.00000000E+000
 2.91111000E-001 2.10000000E-001 0.00000000E+000
 2.94621000E-001 2.10000000E-001 0.00000000E+000
 2.98131000E-001 2.10000000E-001 0.00000000E+000
 3.01641000E-001 2.10000000E-001 0.00000000E+000
 3.05151000E-001 2.10000000E-001 0.00000000E+000
 3.08661000E-001 2.10000000E-001 0.00000000E+000
 3.12172000E-001 2.10000000E-001 0.00000000E+000
 3.15682000E-001 2.10000000E-001 0.00000000E+000
 3.19192000E-001 2.10000000E-001 0.00000000E+000
 3.22702000E-001 2.10000000E-001 0.00000000E+000
 3.26212000E-001 2.10000000E-001 0.00000000E+000
 3.29722000E-001 2.10000000E-001 0.00000000E+000
 3.33232000E-001 2.10000000E-001 0.00000000E+000
 3.36742000E-001 2.10000000E-001 0.00000000E+000
 3.40252000E-001 2.10000000E-001 0.00000000E+000
 3.43763000E-001 2.10000000E-001 0.00000000E+000
 3.47273000E-001 2.10000000E-001 0.00000000E+000
 3.50783000E-001 2.10000000E-001 0.00000000E+000
 3.54293000E-001 2.10000000E-001 0.00000000E+000
 3.57803000E-001 2.10000000E-001 0.00000000E+000
 3.61313000E-001 2.10000000E-001 0.00000000E+000
 3.64823000E-001 2.10000000E-001 0.00000000E+000
 3.68333000E-001 2.10000000E-001 0.00000000E+000
 3.71843000E-001 2.10000000E-001 0.00000000E+000
 3.75353000E-001 2.10000000E-001 0.00000000E+000
 3.78864000E-001 2.10000000E-001 0.00000000E+000
 3.82374000E-001 2.10000000E-001 0.00000000E+000
 3.85884000E-001 2.10000000E-001 0.00000000E+000
 3.89394000E-001 2.10000000E-001 0.00000000E+000
 3.92904000E-001 2.10000000E-001 0.00000000E+000
 3.96414000E-001 2.10000000E-001 0.00000000E+000
 3.99924000E-001 2.10000000E-001 0.00000000E+000
 4.03434000E-001 2.10000000E-001 0.00000000E+000
 4.06944000E-001 2.10000000E-001 0.00000000E+000
 4.10455000E-001 2.10000000E-001 0.00000000E+000
 4.13965000E-001 2.10000000E-001 0.00000000E+000
 4.17475000E-001 2.10000000E-001 0.00000000E+000
 4.20985000E-001 2.10000000E-001 0.00000000E+000
 4.24495000E-001 2.10000000E-001 0.00000000E+000
 4.28005000E-001 2.10000000E-001 0.00000000E+000
 4.31515000E-001 2.10000000E-001 0.00000000E+000
 4.35025000E-001 2.10000000E-001 0.00000000E+000
 4.38535000E-001 2.10000000E-001 0.00000000E+000
 4.42045000E-001 2.10000000E-001 0.00000000E+000
 4.45556000E-001 2.10000000E-001 0.00000000E+000
 4.49066000E-001 2.10000000E-001 0.00000000E+000
 4.52576000E-001 2.10000000E-001 0.00000000E+000
 4.56086000E-001 2.10000000E-001 0.00000000E+000
 4.59596000E-001 2.10000000E-001 0.00000000E+000
 4.63106000E-001 2.10000000E-001 0.00000000E+000
 4.66616000E-001 2.10000000E-001 0.00000000E+000
 4.70126000E-001 2.10000000E-001 0.00000000E+000
 4.73636000E-001 2.10000000E-001 0.00000000E+000
 4.77146000E-001 2.10000000E-001 0.00000000E+000
 4.80657000E-001 2.10000000E-001 0.00000000E+000
 4.84167000E-001 2.10000000E-001 0.00000000E+000
 4.87677000E-001 2.10000000E-001 0.00000000E+000
 4.91187000E-001 2.10000000E-001 0.00000000E+000
 4.94697000E-001 2.10000000E-001 0.00000000E+000
[...]
POINT_DATA 3232
VECTORS DISP double
 -4.2594000E-004 -6.4458500E-003  9.2447300E-005
 -3.8513400E-004 -6.4452300E-003  9.2509500E-005
 -3.4499300E-004 -6.4446300E-003  9.2685400E-005
 -3.0447700E-004 -6.4440200E-003  9.2963900E-005
 -2.6418200E-004 -6.4434100E-003  9.3335500E-005
 -2.2377400E-004 -6.4427900E-003  9.3784500E-005
 -1.8337700E-004 -6.4421600E-003  9.4293200E-005
 -1.4303100E-004 -6.4415300E-003  9.4840400E-005
 -1.0259900E-004 -6.4408700E-003  9.5405700E-005
 -6.2221100E-005 -6.4402200E-003  9.5967800E-005
 -2.1688300E-005 -6.4395400E-003  9.6503300E-005
  1.8606000E-005 -6.4389100E-003  9.6994300E-005
  5.9521400E-005 -6.4381900E-003  9.7418300E-005
  9.9528800E-005 -6.4377200E-003  9.7763200E-005
  1.4162500E-004 -6.4368100E-003  9.7992500E-005
  1.8003800E-004 -6.4383200E-003  9.8067800E-005
  1.8139200E-004 -6.5403700E-003  9.8083700E-005
  1.8019400E-004 -6.6487700E-003  9.8217800E-005
  1.8061600E-004 -6.7524900E-003  9.8520400E-005
  1.8002400E-004 -6.8599000E-003  9.9003500E-005
  1.7982000E-004 -6.9646000E-003  9.9687700E-005
  1.7895500E-004 -7.0715400E-003  1.0057300E-004
  1.7793400E-004 -7.1765700E-003  1.0166600E-004
  1.7624400E-004 -7.2828400E-003  1.0296000E-004
  1.7405800E-004 -7.3874000E-003  1.0445300E-004
  1.7106300E-004 -7.4923300E-003  1.0613100E-004
  1.6731900E-004 -7.5953700E-003  1.0798400E-004
  1.6259500E-004 -7.6978800E-003  1.0999300E-004
  1.5692100E-004 -7.7980800E-003  1.1214000E-004
  1.5011900E-004 -7.8968100E-003  1.1440400E-004
  1.4221500E-004 -7.9926000E-003  1.1676400E-004
  1.3307700E-004 -8.0859400E-003  1.1919600E-004
  1.2274200E-004 -8.1755900E-003  1.2167500E-004
  1.1112200E-004 -8.2618100E-003  1.2417700E-004
  9.8271800E-005 -8.3434800E-003  1.2667800E-004
  8.4139300E-005 -8.4207900E-003  1.2915500E-004
  6.8811400E-005 -8.4926900E-003  1.3158500E-004
  5.2255400E-005 -8.5593000E-003  1.3394700E-004
  3.4601700E-005 -8.6197400E-003  1.3622000E-004
  1.5827600E-005 -8.6739800E-003  1.3838800E-004
 -3.8973600E-006 -8.7214200E-003  1.4043200E-004
 -2.4581900E-005 -8.7618400E-003  1.4234000E-004
 -4.6034900E-005 -8.7949500E-003  1.4409900E-004
 -6.8240400E-005 -8.8203500E-003  1.4569900E-004
 -9.1012600E-005 -8.8380700E-003  1.4713200E-004
 -1.1429300E-004 -8.8475700E-003  1.4839100E-004
 -1.3793000E-004 -8.8491000E-003  1.4947500E-004
 -1.6181200E-004 -8.8421500E-003  1.5038000E-004
 -1.8583400E-004 -8.8270100E-003  1.5110800E-004
 -2.0984400E-004 -8.8033800E-003  1.5165800E-004
 -2.3377200E-004 -8.7714200E-003  1.5203500E-004
 -2.5745500E-004 -8.7311400E-003  1.5224300E-004
 -2.8083700E-004 -8.6825200E-003  1.5228800E-004
 -3.0377400E-004 -8.6259100E-003  1.5217600E-004
 -3.2620300E-004 -8.5610900E-003  1.5191300E-004
 -3.4802600E-004 -8.4886600E-003  1.5151000E-004
 -3.6915600E-004 -8.4083600E-003  1.5097200E-004
 -3.8955400E-004 -8.3208400E-003  1.5030900E-004
 -4.0911000E-004 -8.2259400E-003  1.4952900E-004
 -4.2783500E-004 -8.1242300E-003  1.4864100E-004
 -4.4561400E-004 -8.0157600E-003  1.4765200E-004
 -4.6248700E-004 -7.9008800E-003  1.4657100E-004
 -4.7835500E-004 -7.7799500E-003  1.4540400E-004
 -4.9326000E-004 -7.6530500E-003  1.4415800E-004
 -5.0714400E-004 -7.5207900E-003  1.4283900E-004
 -5.2002800E-004 -7.3830700E-003  1.4145200E-004
 -5.3190700E-004 -7.2406300E-003  1.4000300E-004
 -5.4276800E-004 -7.0933100E-003  1.3849300E-004
 -5.5266000E-004 -6.9418200E-003  1.3692800E-004
 -5.6154500E-004 -6.7861200E-003  1.3530800E-004
 -5.6949600E-004 -6.6267000E-003  1.3363400E-004
 -5.7647800E-004 -6.4637700E-003  1.3190700E-004
 -5.8255900E-004 -6.2975400E-003  1.3012600E-004
 -5.8772800E-004 -6.1284600E-003  1.2829000E-004
 -5.9201800E-004 -5.9565100E-003  1.2639600E-004
 -5.9546900E-004 -5.7823100E-003  1.2444200E-004
 -5.9805600E-004 -5.6057000E-003  1.2242400E-004
 -5.9987600E-004 -5.4273200E-003  1.2033800E-004
 -6.0084400E-004 -5.2471000E-003  1.1817900E-004
 -6.0110300E-004 -5.0654800E-003  1.1594100E-004
 -6.0052800E-004 -4.8826400E-003  1.1362000E-004
 -5.9927800E-004 -4.6986900E-003  1.1120700E-004
 -5.9721900E-004 -4.5142000E-003  1.0869800E-004
 -5.9449300E-004 -4.3288700E-003  1.0608600E-004
 -5.9098100E-004 -4.1436500E-003  1.0336300E-004
 -5.8679100E-004 -3.9579400E-003  1.0052100E-004
 -5.8183300E-004 -3.7729100E-003  9.7556000E-005
 -5.7617100E-004 -3.5878500E-003  9.4458600E-005
 -5.6973900E-004 -3.4039800E-003  9.1223500E-005
 -5.6258100E-004 -3.2206500E-003  8.7843700E-005
 -5.5461600E-004 -3.0389800E-003  8.4313500E-005
 -5.4591400E-004 -2.8585200E-003  8.0628000E-005
 -5.3633300E-004 -2.6802100E-003  7.6782000E-005
 -5.2601100E-004 -2.5038000E-003  7.2773500E-005
 -5.1470800E-004 -2.3301400E-003  6.8598500E-005
 -5.0266500E-004 -2.1590200E-003  6.4258900E-005
 -4.8951300E-004 -1.9914600E-003  5.9753600E-005
 -4.7561700E-004 -1.8269800E-003  5.5089700E-005
 -4.6047800E-004 -1.6671100E-003  5.0271500E-005
 -4.4456000E-004 -1.5107700E-003  4.5312800E-005
 -4.2728000E-004 -1.3603200E-003  4.0226900E-005
 -4.0913900E-004 -1.2137700E-003  3.5037600E-005
 -3.8954600E-004 -1.0746100E-003  2.9771800E-005
 -3.6894400E-004 -9.3969600E-004  2.4469200E-005
 -3.4685600E-004 -8.1383900E-004  1.9176400E-005
 -3.2350200E-004 -6.9257800E-004  1.3958500E-005
 -2.9873800E-004 -5.8223700E-004  8.8913900E-006
 -2.7226300E-004 -4.7680000E-004  4.0810300E-006
 -2.4467400E-004 -3.8443100E-004 -3.5334600E-007
 -2.1456300E-004 -2.9705200E-004 -4.2388900E-006
 -1.8411300E-004 -2.2551500E-004 -7.3908100E-006
 -1.4953500E-004 -1.5834000E-004 -9.5209000E-006
 -1.1671400E-004 -1.1141100E-004 -1.0350400E-005
 -7.6699300E-005 -6.5571800E-005 -9.3824300E-006
 -4.6036100E-005 -4.8256000E-005 -6.3079200E-006
  0.0000000E+000  0.0000000E+000  0.0000000E+000
  0.0000000E+000  0.0000000E+000  0.0000000E+000
  0.0000000E+000  0.0000000E+000  0.0000000E+000
  0.0000000E+000  0.0000000E+000  0.0000000E+000
  0.0000000E+000  0.0000000E+000  0.0000000E+000
  0.0000000E+000  0.0000000E+000  0.0000000E+000
  0.0000000E+000  0.0000000E+000  0.0000000E+000
  0.0000000E+000  0.0000000E+000  0.0000000E+000
  0.0000000E+000  0.0000000E+000  0.0000000E+000
  0.0000000E+000  0.0000000E+000  0.0000000E+000
  0.0000000E+000  0.0000000E+000  0.0000000E+000
  0.0000000E+000  0.0000000E+000  0.0000000E+000
  0.0000000E+000  0.0000000E+000  0.0000000E+000
  0.0000000E+000  0.0000000E+000  0.0000000E+000
  0.0000000E+000  0.0000000E+000  0.0000000E+000
  0.0000000E+000  0.0000000E+000  0.0000000E+000
  4.5788500E-005 -4.7016300E-005  1.8082800E-005
  7.7727600E-005 -6.5192200E-005  3.2474200E-005
  1.1777600E-004 -1.1143000E-004  4.4320700E-005
  1.5097200E-004 -1.5946100E-004  5.3963300E-005
  1.8522800E-004 -2.2738300E-004  6.1906900E-005
  2.1526200E-004 -3.0040600E-004  6.8444900E-005
  2.4436400E-004 -3.8864400E-004  7.3875000E-005
  2.7065100E-004 -4.8277900E-004  7.8391500E-005
  2.9527300E-004 -5.8910400E-004  8.2178300E-005
  3.1777600E-004 -7.0132300E-004  8.5361500E-005
  3.3837500E-004 -8.2350300E-004  8.8059000E-005
  3.5723100E-004 -9.5115500E-004  9.0352400E-005
  3.7417800E-004 -1.0870600E-003  9.2318400E-005
  3.8961100E-004 -1.2277800E-003  9.4010100E-005
  4.0323100E-004 -1.3754200E-003  9.5476900E-005
  4.1550300E-004 -1.5271100E-003  9.6753300E-005
  4.2609600E-004 -1.6846100E-003  9.7870600E-005
  4.3548300E-004 -1.8453900E-003  9.8851600E-005
  4.4333200E-004 -2.0110300E-003  9.9715200E-005
  4.5010600E-004 -2.1792400E-003  1.0047600E-004
  4.5547300E-004 -2.3514100E-003  1.0114500E-004
  4.5988900E-004 -2.5255700E-003  1.0173200E-004
  4.6302600E-004 -2.7027900E-003  1.0224300E-004
  4.6531200E-004 -2.8815600E-003  1.0268200E-004
  4.6644800E-004 -3.0625100E-003  1.0305200E-004
  4.6680700E-004 -3.2446500E-003  1.0335500E-004
  4.6614600E-004 -3.4281300E-003  1.0359300E-004
  4.6475800E-004 -3.6124700E-003  1.0376500E-004
  4.6247400E-004 -3.7974100E-003  1.0387000E-004
  4.5949000E-004 -3.9828300E-003  1.0390800E-004
  4.5572400E-004 -4.1682500E-003  1.0387700E-004
  4.5127300E-004 -4.3537000E-003  1.0377400E-004
  4.4613100E-004 -4.5386800E-003  1.0360000E-004
  4.4032000E-004 -4.7231300E-003  1.0335100E-004
  4.3387600E-004 -4.9067600E-003  1.0302500E-004
  4.2678500E-004 -5.0892400E-003  1.0262200E-004
  4.1908600E-004 -5.2706000E-003  1.0214000E-004
  4.1077100E-004 -5.4501800E-003  1.0157700E-004
  4.0184400E-004 -5.6283000E-003  1.0093300E-004
  3.9233200E-004 -5.8040700E-003  1.0021000E-004
  3.8218900E-004 -5.9779300E-003  9.9404600E-005
  3.7149000E-004 -6.1489600E-003  9.8521200E-005
  3.6013700E-004 -6.3175100E-003  9.7560000E-005
  3.4823900E-004 -6.4828300E-003  9.6524700E-005
  3.3567600E-004 -6.6450000E-003  9.5418300E-005
  3.2256100E-004 -6.8035700E-003  9.4245400E-005
  3.0878900E-004 -6.9582700E-003  9.3011400E-005
  2.9444400E-004 -7.1089800E-003  9.1722000E-005
  2.7946400E-004 -7.2551100E-003  9.0385100E-005
  2.6388800E-004 -7.3967800E-003  8.9007500E-005
  2.4771100E-004 -7.5332400E-003  8.7599400E-005
  2.3092300E-004 -7.6646800E-003  8.6168900E-005
  2.1357400E-004 -7.7903600E-003  8.4727600E-005
  1.9562300E-004 -7.9103600E-003  8.3285600E-005
  1.7715200E-004 -8.0241500E-003  8.1854800E-005
  1.5811500E-004 -8.1315800E-003  8.0447000E-005
  1.3860200E-004 -8.2323800E-003  7.9074200E-005
  1.1859000E-004 -8.3261800E-003  7.7749200E-005
  9.8157200E-005 -8.4129600E-003  7.6483500E-005
  7.7317300E-005 -8.4922100E-003  7.5290200E-005
  5.6125800E-005 -8.5640300E-003  7.4180000E-005
  3.4642000E-005 -8.6279400E-003  7.3165200E-005
  1.2899600E-005 -8.6840600E-003  7.2255600E-005
 -9.0069500E-006 -8.7320100E-003  7.1461400E-005
 -3.1051600E-005 -8.7718800E-003  7.0791000E-005
 -5.3121700E-005 -8.8034800E-003  7.0251900E-005
 -7.5184300E-005 -8.8268000E-003  6.9850300E-005
 -9.7124600E-005 -8.8418900E-003  6.9590600E-005
 -1.1889200E-004 -8.8486600E-003  6.9476300E-005
 -1.4038300E-004 -8.8473500E-003  6.9508000E-005
 -1.6152400E-004 -8.8378700E-003  6.9685900E-005
 -1.8222900E-004 -8.8205500E-003  7.0007200E-005
 -2.0240600E-004 -8.7954200E-003  7.0468100E-005
 -2.2198700E-004 -8.7628200E-003  7.1062500E-005
 -2.4087200E-004 -8.7229100E-003  7.1782500E-005
 -2.5900800E-004 -8.6760400E-003  7.2618800E-005
 -2.7629900E-004 -8.6225200E-003  7.3560100E-005
 -2.9270200E-004 -8.5626600E-003  7.4593900E-005
 -3.0814200E-004 -8.4969300E-003  7.5706000E-005
 -3.2257800E-004 -8.4255900E-003  7.6881800E-005
 -3.3597500E-004 -8.3492100E-003  7.8104800E-005
 -3.4828700E-004 -8.2680800E-003  7.9359000E-005
 -3.5952500E-004 -8.1827700E-003  8.0626900E-005
 -3.6964600E-004 -8.0936200E-003  8.1891900E-005
 -3.7870500E-004 -8.0011200E-003  8.3137000E-005
 -3.8667200E-004 -7.9057100E-003  8.4346200E-005
 -3.9363500E-004 -7.8077600E-003  8.5504200E-005
 -3.9959200E-004 -7.7077700E-003  8.6596800E-005
 -4.0465000E-004 -7.6059800E-003  8.7611800E-005
 -4.0884800E-004 -7.5029300E-003  8.8538200E-005
 -4.1229100E-004 -7.3987200E-003  8.9368200E-005
 -4.1507400E-004 -7.2938400E-003  9.0095400E-005
 -4.1727600E-004 -7.1883400E-003  9.0717300E-005
 -4.1906800E-004 -7.0825700E-003  9.1233400E-005
 -4.2045500E-004 -6.9765800E-003  9.1647100E-005
 -4.2171700E-004 -6.8704900E-003  9.1964600E-005
 -4.2268100E-004 -6.7643600E-003  9.2193900E-005
 -4.2382600E-004 -6.6581500E-003  9.2345500E-005
 -4.2455500E-004 -6.5519700E-003  9.2425200E-005
 -3.8450800E-004 -6.5514600E-003  9.2486100E-005
 -3.8331700E-004 -6.6575700E-003  9.2408400E-005
 -3.8248900E-004 -6.7638400E-003  9.2263300E-005
 -3.8136400E-004 -6.8699500E-003  9.2042700E-005
 -3.8025900E-004 -6.9761300E-003  9.1737800E-005
 -3.7886700E-004 -7.0821400E-003  9.1340200E-005
 -3.7722500E-004 -7.1880800E-003  9.0844300E-005
 -3.7517400E-004 -7.2936200E-003  9.0246800E-005
 -3.7264800E-004 -7.3987400E-003  8.9547800E-005
 -3.6955300E-004 -7.5030500E-003  8.8750000E-005
 -3.6580700E-004 -7.6064000E-003  8.7859200E-005
 -3.6134100E-004 -7.7083500E-003  8.6883200E-005
 -3.5609300E-004 -7.8086500E-003  8.5832300E-005
 -3.5000600E-004 -7.9068300E-003  8.4718500E-005
 -3.4305100E-004 -8.0025600E-003  8.3555400E-005
 -3.3518400E-004 -8.0953500E-003  8.2357700E-005
 -3.2640500E-004 -8.1848000E-003  8.1141000E-005
 -3.1669000E-004 -8.2704600E-003  7.9921700E-005
 -3.0605900E-004 -8.3518600E-003  7.8716100E-005
 -2.9451900E-004 -8.4286000E-003  7.7540600E-005
 -2.8209400E-004 -8.5001900E-003  7.6411300E-005
 -2.6882900E-004 -8.5662600E-003  7.5343800E-005
 -2.5474400E-004 -8.6263700E-003  7.4352500E-005
 -2.3992000E-004 -8.6801700E-003  7.3451000E-005
 -2.2437200E-004 -8.7272800E-003  7.2651700E-005
 -2.0820300E-004 -8.7673900E-003  7.1965200E-005
 -1.9143500E-004 -8.8002200E-003  7.1400800E-005
 -1.7417100E-004 -8.8254700E-003  7.0966200E-005
 -1.5645200E-004 -8.8429800E-003  7.0667100E-005
 -1.3836500E-004 -8.8525000E-003  7.0507400E-005
 -1.1997500E-004 -8.8539600E-003  7.0489600E-005
 -1.0134300E-004 -8.8471800E-003  7.0614000E-005
 -8.2559600E-005 -8.8321400E-003  7.0879300E-005
 -6.3656100E-005 -8.8087900E-003  7.1282500E-005
 -4.4741000E-005 -8.7771400E-003  7.1819300E-005
 -2.5825100E-005 -8.7372400E-003  7.2483500E-005
 -7.0173100E-006 -8.6891200E-003  7.3267900E-005
  1.1675500E-005 -8.6329700E-003  7.4164100E-005
  3.0165000E-005 -8.5688100E-003  7.5162500E-005
  4.8428200E-005 -8.4969400E-003  7.6252900E-005
  6.6418400E-005 -8.4173900E-003  7.7424200E-005
  8.4080000E-005 -8.3305200E-003  7.8664900E-005
  1.0141800E-004 -8.2364300E-003  7.9963200E-005
  1.1834400E-004 -8.1354400E-003  8.1307000E-005
  1.3490400E-004 -8.0277800E-003  8.2684200E-005
  1.5099500E-004 -7.9137000E-003  8.4083000E-005
  1.6667900E-004 -7.7935500E-003  8.5491800E-005
  1.8186800E-004 -7.6674800E-003  8.6899100E-005
  1.9660700E-004 -7.5359500E-003  8.8294400E-005
  2.1085000E-004 -7.3990600E-003  8.9667500E-005
  2.2459700E-004 -7.2573000E-003  9.1009000E-005
  2.3786800E-004 -7.1107700E-003  9.2310200E-005
  2.5060400E-004 -6.9599200E-003  9.3563500E-005
  2.6288300E-004 -6.8049200E-003  9.4761700E-005
  2.7460900E-004 -6.6461100E-003  9.5898800E-005
  2.8588300E-004 -6.4837800E-003  9.6969500E-005
  2.9660700E-004 -6.3180900E-003  9.7969600E-005
  3.0686600E-004 -6.1495100E-003  9.8895600E-005
  3.1660000E-004 -5.9780300E-003  9.9744500E-005
  3.2583500E-004 -5.8042200E-003  1.0051500E-004
  3.3457900E-004 -5.6279800E-003  1.0120500E-004
  3.4278000E-004 -5.4499100E-003  1.0181400E-004
  3.5051800E-004 -5.2699200E-003  1.0234300E-004
  3.5767000E-004 -5.0885400E-003  1.0279200E-004
  3.6436500E-004 -4.9057600E-003  1.0316100E-004
  3.7044300E-004 -4.7220100E-003  1.0345200E-004
  3.7603700E-004 -4.5373800E-003  1.0366700E-004
  3.8099400E-004 -4.3521800E-003  1.0380700E-004
  3.8541000E-004 -4.1666300E-003  1.0387400E-004
  3.8917400E-004 -3.9809700E-003  1.0387000E-004
  3.9231700E-004 -3.7954300E-003  1.0379500E-004
  3.9478400E-004 -3.6103100E-003  1.0365300E-004
  3.9654100E-004 -3.4257500E-003  1.0344300E-004
  3.9757400E-004 -3.2422300E-003  1.0316600E-004
  3.9781400E-004 -3.0596900E-003  1.0282200E-004
  3.9724800E-004 -2.8788900E-003  1.0241000E-004
  3.9581500E-004 -2.6995100E-003  1.0192800E-004
  3.9346200E-004 -2.5226400E-003  1.0137400E-004
  3.9017300E-004 -2.3476600E-003  1.0074100E-004
  3.8582800E-004 -2.1760200E-003  1.0002500E-004
  3.8047400E-004 -2.0068100E-003  9.9216800E-005
  3.7392100E-004 -1.8418400E-003  9.8304500E-005
  3.6626000E-004 -1.6799100E-003  9.7274000E-005
  3.5728000E-004 -1.5231900E-003  9.6107000E-005
  3.4704800E-004 -1.3701900E-003  9.4780200E-005
  3.3542300E-004 -1.2235000E-003  9.3264600E-005
  3.2232800E-004 -1.0812100E-003  9.1523900E-005
  3.0785400E-004 -9.4653200E-004  8.9512900E-005
  2.9158000E-004 -8.1687400E-004  8.7175300E-005
  2.7408500E-004 -6.9643400E-004  8.4441500E-005
  2.5427600E-004 -5.8148600E-004  8.1225200E-005
  2.3366300E-004 -4.7775000E-004  7.7418800E-005
  2.0988600E-004 -3.7972900E-004  7.2889700E-005
  1.8620400E-004 -2.9544300E-004  6.7470800E-005
  1.5785900E-004 -2.1671000E-004  6.0957200E-005
  1.3148700E-004 -1.5495600E-004  5.3083200E-005
  9.7673900E-005 -9.8264200E-005  4.3537700E-005
  7.0046100E-005 -6.2174800E-005  3.1888100E-005
  3.0130800E-005 -3.0555100E-005  1.7757400E-005
 -3.4394700E-004 -6.5508500E-003  9.2663600E-005
 -3.4316300E-004 -6.6570800E-003  9.2594200E-005
 -3.4210100E-004 -6.7632300E-003  9.2467000E-005
 -3.4120200E-004 -6.8694800E-003  9.2272500E-005
 -3.4005800E-004 -6.9755900E-003  9.2003500E-005
 -3.3883300E-004 -7.0817600E-003  9.1652400E-005
 -3.3730400E-004 -7.1877000E-003  9.1214200E-005
 -3.3548000E-004 -7.2934300E-003  9.0685800E-005
 -3.3323500E-004 -7.3986200E-003  9.0067200E-005
 -3.3052500E-004 -7.5031500E-003  8.9360600E-005
 -3.2726500E-004 -7.6066200E-003  8.8571000E-005
 -3.2341600E-004 -7.7088200E-003  8.7705400E-005
 -3.1890200E-004 -7.8093100E-003  8.6772900E-005
 -3.1371400E-004 -7.9077600E-003  8.5784300E-005
 -3.0778200E-004 -8.0037100E-003  8.4751700E-005
 -3.0112300E-004 -8.0967800E-003  8.3688400E-005
 -2.9368600E-004 -8.1864900E-003  8.2608600E-005
 -2.8550000E-004 -8.2724200E-003  8.1527000E-005
 -2.7654500E-004 -8.3541000E-003  8.0458600E-005
 -2.6684900E-004 -8.4311000E-003  7.9418200E-005
 -2.5643200E-004 -8.5029600E-003  7.8420500E-005
 -2.4530900E-004 -8.5692800E-003  7.7479500E-005
 -2.3354300E-004 -8.6296400E-003  7.6608700E-005
 -2.2113400E-004 -8.6836600E-003  7.5820300E-005
 -2.0817500E-004 -8.7309900E-003  7.5125600E-005
 -1.9466300E-004 -8.7712900E-003  7.4534500E-005
 -1.8070000E-004 -8.8042700E-003  7.4055400E-005
 -1.6629700E-004 -8.8296900E-003  7.3695300E-005
 -1.5154000E-004 -8.8473000E-003  7.3459400E-005
 -1.3646700E-004 -8.8569400E-003  7.3351600E-005
 -1.2113600E-004 -8.8584400E-003  7.3373700E-005
 -1.0561800E-004 -8.8517100E-003  7.3526300E-005
 -8.9933300E-005 -8.8366800E-003  7.3807900E-005
 -7.4183500E-005 -8.8133200E-003  7.4216000E-005
 -5.8357800E-005 -8.7816300E-003  7.4746300E-005
 -4.2571800E-005 -8.7416600E-003  7.5393100E-005
 -2.6803400E-005 -8.6934800E-003  7.6149800E-005
 -1.1155800E-005 -8.6371900E-003  7.7008300E-005
  4.3778400E-006 -8.5729400E-003  7.7960000E-005
  1.9734600E-005 -8.5008800E-003  7.8995000E-005
  3.4882300E-005 -8.4212100E-003  8.0103200E-005
  4.9816700E-005 -8.3341200E-003  8.1273600E-005
  6.4456900E-005 -8.2398600E-003  8.2495400E-005
  7.8856100E-005 -8.1386700E-003  8.3757100E-005
  9.2897600E-005 -8.0307900E-003  8.5047400E-005
  1.0666800E-004 -7.9165200E-003  8.6355200E-005
  1.2004600E-004 -7.7961100E-003  8.7669500E-005
  1.3311300E-004 -7.6698600E-003  8.8979700E-005
  1.4578500E-004 -7.5380500E-003  9.0275700E-005
  1.5809500E-004 -7.4009900E-003  9.1548000E-005
  1.7003100E-004 -7.2589600E-003  9.2787600E-005
  1.8155200E-004 -7.1122500E-003  9.3986600E-005
  1.9272800E-004 -6.9611500E-003  9.5137100E-005
  2.0344800E-004 -6.8059400E-003  9.6232900E-005
  2.1384300E-004 -6.6469300E-003  9.7267800E-005
  2.2376400E-004 -6.4843500E-003  9.8237100E-005
  2.3335600E-004 -6.3185300E-003  9.9136400E-005
  2.4248600E-004 -6.1496600E-003  9.9962200E-005
  2.5125500E-004 -5.9780900E-003  1.0071200E-004
  2.5959600E-004 -5.8039800E-003  1.0138400E-004
  2.6752400E-004 -5.6276800E-003  1.0197600E-004
  2.7506200E-004 -5.4493200E-003  1.0248800E-004
  2.8213100E-004 -5.2692700E-003  1.0292000E-004
  2.8883600E-004 -5.0876300E-003  1.0327200E-004
  2.9502500E-004 -4.9047700E-003  1.0354400E-004
  3.0084300E-004 -4.7207900E-003  1.0373800E-004
  3.0612100E-004 -4.5360600E-003  1.0385500E-004
  3.1098100E-004 -4.3506700E-003  1.0389600E-004
  3.1529600E-004 -4.1650200E-003  1.0386200E-004
  3.1911200E-004 -3.9791500E-003  1.0375500E-004
  3.2238500E-004 -3.7935400E-003  1.0357700E-004
  3.2506000E-004 -3.6081700E-003  1.0332800E-004
  3.2718300E-004 -3.4236100E-003  1.0300800E-004
  3.2860400E-004 -3.2397600E-003  1.0261900E-004
  3.2943900E-004 -3.0573100E-003  1.0216000E-004
  3.2948000E-004 -2.8760700E-003  1.0162900E-004
  3.2886500E-004 -2.6969000E-003  1.0102500E-004
  3.2737700E-004 -2.5194600E-003  1.0034400E-004