# vtk DataFile Version 3.0
MMH: CalculiX output 'object.frd' file to 'vtk' format
ASCII
DATASET UNSTRUCTURED_GRID
POINTS 3232 double
 6.00000000E-001 2.10000000E-001 0.00000000E+000
 6.00000000E-001 2.08667000E-001 0.00000000E+000
 6.00000000E-001 2.07333000E-001 0.00000000E+000
 6.00000000E-001 2.06000000E-001 0.00000000E+000
 6.00000000E-001 2.04667000E-001 0.00000000E+000
 6.00000000E-001 2.03333000E-001 0.00000000E+000
 6.00000000E-001 2.02000000E-001 0.00000000E+000
 6.00000000E-001 2.00667000E-001 0.00000000E+000
 6.00000000E-001 1.99333000E-001 0.00000000E+000
 6.00000000E-001 1.98000000E-001 0.00000000E+000
 6.00000000E-001 1.96667000E-001 0.00000000E+000
 6.00000000E-001 1.95333000E-001 0.00000000E+000
 6.00000000E-001 1.94000000E-001 0.00000000E+000
 6.00000000E-001 1.92667000E-001 0.00000000E+000
 6.00000000E-001 1.91333000E-001 0.00000000E+000
 6.00000000E-001 1.90000000E-001 0.00000000E+000
 5.96490000E-001 1.90000000E-001 0.00000000E+000
 5.92980000E-001 1.90000000E-001 0.00000000E+000
 5.89470000E-001 1.90000000E-001 0.00000000E+000
 5.85960000E-001 1.90000000E-001 0.00000000E+000
 5.82449000E-001 1.90000000E-001 0.00000000E+000
 5.78939000E-001 1.90000000E-001 0.00000000E+000
 5.75429000E-001 1.90000000E-001 0.00000000E+000
 5.71919000E-001 1.90000000E-001 0.00000000E+000
 5.68409000E-001 1.90000000E-001 0.00000000E+000
 5.64899000E-001 1.90000000E-001 0.00000000E+000
 5.61389000E-001 1.90000000E-001 0.00000000E+000
 5.57879000E-001 1.90000000E-001 0.00000000E+000
 5.54369000E-001 1.90000000E-001 0.00000000E+000
 5.50859000E-001 1.90000000E-001 0.00000000E+000
 5.47348000E-001 1.90000000E-001 0.00000000E+000
 5.43838000E-001 1.90000000E-001 0.00000000E+000
 5.40328000E-001 1.90000000E-001 0.00000000E+000
 5.36818000E-001 1.90000000E-001 0.00000000E+000
 5.33308000E-001 1.90000000E-001 0.00000000E+000
 5.29798000E-001 1.90000000E-001 0.00000000E+000
 5.26288000E-001 1.90000000E-001 0.00000000E+000
 5.22778000E-001 1.90000000E-001 0.00000000E+000
 5.19268000E-001 1.90000000E-001 0.00000000E+000
 5.15758000E-001 1.90000000E-001 0.00000000E+000
 5.12247000E-001 1.90000000E-001 0.00000000E+000
 5.08737000E-001 1.90000000E-001 0.00000000E+000
 5.05227000E-001 1.90000000E-001 0.00000000E+000
 5.01717000E-001 1.90000000E-001 0.00000000E+000
 4.98207000E-001 1.90000000E-001 0.00000000E+000
 4.94697000E-001 1.90000000E-001 0.00000000E+000
 4.91187000E-001 1.90000000E-001 0.00000000E+000
 4.87677000E-001 1.90000000E-001 0.00000000E+000
 4.84167000E-001 1.90000000E-001 0.00000000E+000
 4.80657000E-001 1.90000000E-001 0.00000000E+000
 4.77146000E-001 1.90000000E-001 0.00000000E+000
 4.73636000E-001 1.90000000E-001 0.00000000E+000
 4.70126000E-001 1.90000000E-001 0.00000000E+000
 4.66616000E-001 1.90000000E-001 0.00000000E+000
 4.63106000E-001 1.90000000E-001 0.00000000E+000
 4.59596000E-001 1.90000000E-001 0.00000000E+000
 4.56086000E-001 1.90000000E-001 0.00000000E+000
 4.52576000E-001 1.90000000E-001 0.00000000E+000
 4.49066000E-001 1.90000000E-001 0.00000000E+000
 4.45556000E-001 1.90000000E-001 0.00000000E+000
 4.42045000E-001 1.90000000E-001 0.00000000E+000
 4.38535000E-001 1.90000000E-001 0.00000000E+000
 4.35025000E-001 1.90000000E-001 0.00000000E+000
 4.31515000E-001 1.90000000E-001 0.00000000E+000
 4.28005000E-001 1.90000000E-001 0.00000000E+000
 4.24495000E-001 1.90000000E-001 0.00000000E+000
 4.20985000E-001 1.90000000E-001 0.00000000E+000
 4.17475000E-001 1.90000000E-001 0.00000000E+000
 4.13965000E-001 1.90000000E-001 0.00000000E+000
 4.10455000E-001 1.90000000E-001 0.00000000E+000
 4.06944000E-001 1.90000000E-001 0.00000000E+000
 4.03434000E-001 1.90000000E-001 0.00000000E+000
 3.99924000E-001 1.90000000E-001 0.00000000E+000
 3.96414000E-001 1.90000000E-001 0.00000000E+000
 3.92904000E-001 1.90000000E-001 0.00000000E+000
 3.89394000E-001 1.90000000E-001 0.00000000E+000
 3.85884000E-001 1.90000000E-001 0.00000000E+000
 3.82374000E-001 1.90000000E-001 0.00000000E+000
 3.78864000E-001 1.90000000E-001 0.00000000E+000
 3.75353000E-001 1.90000000E-001 0.00000000E+000
 3.71843000E-001 1.90000000E-001 0.00000000E+000
 3.68333000E-001 1.90000000E-001 0.00000000E+000
 3.64823000E-001 1.90000000E-001 0.00000000E+000
 3.61313000E-001 1.90000000E-001 0.00000000E+000
 3.57803000E-001 1.90000000E-001 0.00000000E+000
 3.54293000E-001 1.90000000E-001 0.00000000E+000
 3.50783000E-001 1.90000000E-001 0.00000000E+000
 3.47273000E-001 1.90000000E-001 0.00000000E+000
 3.43763000E-001 1.90000000E-001 0.00000000E+000
 3.40252000E-001 1.90000000E-001 0.00000000E+000
 3.36742000E-001 1.90000000E-001 0.00000000E+000
 3.33232000E-001 1.90000000E-001 0.00000000E+000
 3.29722000E-001 1.90000000E-001 0.00000000E+000
 3.26212000E-001 1.90000000E-001 0.00000000E+000
 3.22702000E-001 1.90000000E-001 0.00000000E+000
 3.19192000E-001 1.90000000E-001 0.00000000E+000
 3.15682000E-001 1.90000000E-001 0.00000000E+000
 3.12172000E-001 1.90000000E-001 0.00000000E+000
 3.08661000E-001 1.90000000E-001 0.00000000E+000
 3.05151000E-001 1.90000000E-001 0.00000000E+000
 3.01641000E-001 1.90000000E-001 0.00000000E+000
 2.98131000E-001 1.90000000E-001 0.00000000E+000
 2.94621000E-001 1.90000000E-001 0.00000000E+000
 2.91111000E-001 1.90000000E-001 0.00000000E+000
 2.87601000E-001 1.90000000E-001 0.00000000E+000
 2.84091000E-001 1.90000000E-001 0.00000000E+000
 2.80581000E-001 1.90000000E-001 0.00000000E+000
 2.77071000E-001 1.90000000E-001 0.00000000E+000
 2.73560000E-001 1.90000000E-001 0.00000000E+000
 2.70050000E-001 1.90000000E-001 0.00000000E+000
 2.66540000E-001 1.90000000E-001 0.00000000E+000
 2.63030000E-001 1.90000000E-001 0.00000000E+000
 2.59520000E-001 1.90000000E-001 0.00000000E+000
 2.56010000E-001 1.90000000E-001 0.00000000E+000
 2.52500000E-001 1.90000000E-001 0.00000000E+000
 2.48990000E-001 1.90000000E-001 0.00000000E+000
 2.48990000E-001 1.91333000E-001 0.00000000E+000
 2.48990000E-001 1.92667000E-001 0.00000000E+000
 2.48990000E-001 1.94000000E-001 0.00000000E+000
 2.48990000E-001 1.95333000E-001 0.00000000E+000
 2.48990000E-001 1.96667000E-001 0.00000000E+000
 2.48990000E-001 1.98000000E-001 0.00000000E+000
 2.48990000E-001 1.99333000E-001 0.00000000E+000
 2.48990000E-001 2.00667000E-001 0.00000000E+000
 2.48990000E-001 2.02000000E-001 0.00000000E+000
 2.48990000E-001 2.03333000E-001 0.00000000E+000
 2.48990000E-001 2.04667000E-001 0.00000000E+000
 2.48990000E-001 2.06000000E-001 0.00000000E+000
 2.48990000E-001 2.07333000E-001 0.00000000E+000
 2.48990000E-001 2.08667000E-001 0.00000000E+000
 2.48990000E-001 2.10000000E-001 0.00000000E+000
 2.52500000E-001 2.10000000E-001 0.00000000E+000
 2.56010000E-001 2.10000000E-001 0.00000000E+000
 2.59520000E-001 2.10000000E-001 0.00000000E+000
 2.63030000E-001 2.10000000E-001 0.00000000E+000
 2.66540000E-001 2.10000000E-001 0.00000000E+000
 2.70050000E-001 2.10000000E-001 0.00000000E+000
 2.73560000E-001 2.10000000E-001 0.00000000E+000
 2.77071000E-001 2.10000000E-001 0.00000000E+000
 2.80581000E-001 2.10000000E-001 0.00000000E+000
 2.84091000E-001 2.10000000E-001 0.00000000E+000
 2.87601000E-001 2.10000000E-001 0.00000000E+000
 2.91111000E-001 2.10000000E-001 0.00000000E+000
 2.94621000E-001 2.10000000E-001 0.00000000E+000
 2.98131000E-001 2.10000000E-001 0.00000000E+000
 3.01641000E-001 2.10000000E-001 0.00000000E+000
 3.05151000E-001 2.10000000E-001 0.00000000E+000
 3.08661000E-001 2.10000000E-001 0.00000000E+000
 3.12172000E-001 2.10000000E-001 0.00000000E+000
 3.15682000E-001 2.10000000E-001 0.00000000E+000
 3.19192000E-001 2.10000000E-001 0.00000000E+000
 3.22702000E-001 2.10000000E-001 0.00000000E+000
 3.26212000E-001 2.10000000E-001 0.00000000E+000
 3.29722000E-001 2.10000000E-001 0.00000000E+000
 3.33232000E-001 2.10000000E-001 0.00000000E+000
 3.36742000E-001 2.10000000E-001 0.00000000E+000
 3.40252000E-001 2.10000000E-001 0.00000000E+000
 3.43763000E-001 2.10000000E-001 0.00000000E+000
 3.47273000E-001 2.10000000E-001 0.00000000E+000
 3.50783000E-001 2.10000000E-001 0.00000000E+000
 3.54293000E-001 2.10000000E-001 0.00000000E+000
 3.57803000E-001 2.10000000E-001 0.00000000E+000
 3.61313000E-001 2.10000000E-001 0.00000000E+000
 3.64823000E-001 2.10000000E-001 0.00000000E+000
 3.68333000E-001 2.10000000E-001 0.00000000E+000
 3.71843000E-001 2.10000000E-001 0.00000000E+000
 3.75353000E-001 2.10000000E-001 0.00000000E+000
 3.78864000E-001 2.10000000E-001 0.00000000E+000
 3.82374000E-001 2.10000000E-001 0.00000000E+000
 3.85884000E-001 2.10000000E-001 0.00000000E+000
 3.89394000E-001 2.10000000E-001 0.00000000E+000
 3.92904000E-001 2.10000000E-001 0.00000000E+000
 3.96414000E-001 2.10000000E-001 0.00000000E+000
 3.99924000E-001 2.10000000E-001 0.00000000E+000
 4.03434000E-001 2.10000000E-001 0.00000000E+000
 4.06944000E-001 2.10000000E-001 0.00000000E+000
 4.10455000E-001 2.10000000E-001 0.00000000E+000
 4.13965000E-001 2.10000000E-001 0.00000000E+000
 4.17475000E-001 2.10000000E-001 0.00000000E+000
 4.20985000E-001 2.10000000E-001 0.00000000E+000
 4.24495000E-001 2.10000000E-001 0.00000000E+000
 4.28005000E-001 2.10000000E-001 0.00000000E+000
 4.31515000E-001 2.10000000E-001 0.00000000E+000
 4.35025000E-001 2.10000000E-001 0.00000000E+000
 4.38535000E-001 2.10000000E-001 0.00000000E+000
 4.42045000E-001 2.10000000E-001 0.00000000E+000
 4.45556000E-001 2.10000000E-001 0.00000000E+000
 4.49066000E-001 2.10000000E-001 0.00000000E+000
 4.52576000E-001 2.10000000E-001 0.00000000E+000
 4.56086000E-001 2.10000000E-001 0.00000000E+000
 4.59596000E-001 2.10000000E-001 0.00000000E+000
 4.63106000E-001 2.10000000E-001 0.00000000E+000
 4.66616000E-001 2.10000000E-001 0.00000000E+000
 4.70126000E-001 2.10000000E-001 0.00000000E+000
 4.73636000E-001 2.10000000E-001 0.00000000E+000
 4.77146000E-001 2.10000000E-001 0.00000000E+000
 4.80657000E-001 2.10000000E-001 0.00000000E+000
 4.84167000E-001 2.10000000E-001 0.00000000E+000
 4.87677000E-001 2.10000000E-001 0.00000000E+000
 4.91187000E-001 2.10000000E-001 0.00000000E+000
 4.94697000E-001 2.10000000E-001 0.00000000E+000
[...]
POINT_DATA 3232
VECTORS DISP double
 -9.4099800E-004  1.7826300E-002  1.0365200E-004
 -8.6734100E-004  1.7826300E-002  1.0360900E-004
 -7.9728500E-004  1.7828300E-002  1.0347800E-004
 -7.2526200E-004  1.7830100E-002  1.0329100E-004
 -6.5408100E-004  1.7832100E-002  1.0307800E-004
 -5.8232400E-004  1.7834000E-002  1.0284000E-004
 -5.1077900E-004  1.7836000E-002  1.0259000E-004
 -4.3910200E-004  1.7838000E-002  1.0233300E-004
 -3.6744400E-004  1.7839900E-002  1.0208100E-004
 -2.9572600E-004  1.7841900E-002  1.0184100E-004
 -2.2401500E-004  1.7843900E-002  1.0162100E-004
 -1.5234700E-004  1.7845800E-002  1.0143000E-004
 -8.0473400E-005  1.7847800E-002  1.0127500E-004
 -8.9400100E-006  1.7849800E-002  1.0116300E-004
  6.3263000E-005  1.7851800E-002  1.0109000E-004
  1.3430100E-004  1.7853600E-002  1.0106200E-004
  1.3922300E-004  1.7664700E-002  1.0107600E-004
  1.4307500E-004  1.7475400E-002  1.0110500E-004
  1.4755000E-004  1.7286600E-002  1.0113100E-004
  1.5164000E-004  1.7097400E-002  1.0115000E-004
  1.5601000E-004  1.6908500E-002  1.0115400E-004
  1.6030300E-004  1.6719400E-002  1.0113500E-004
  1.6486300E-004  1.6530300E-002  1.0109000E-004
  1.6959000E-004  1.6341100E-002  1.0101500E-004
  1.7467500E-004  1.6151700E-002  1.0091100E-004
  1.8012200E-004  1.5962000E-002  1.0078200E-004
  1.8602900E-004  1.5771700E-002  1.0063300E-004
  1.9244500E-004  1.5580800E-002  1.0047000E-004
  1.9940300E-004  1.5389000E-002  1.0030300E-004
  2.0696800E-004  1.5196200E-002  1.0014200E-004
  2.1512400E-004  1.5002100E-002  9.9996700E-005
  2.2393100E-004  1.4806500E-002  9.9878400E-005
  2.3334100E-004  1.4609200E-002  9.9798300E-005
  2.4339400E-004  1.4409900E-002  9.9767700E-005
  2.5402400E-004  1.4208600E-002  9.9796900E-005
  2.6523800E-004  1.4005000E-002  9.9896500E-005
  2.7696800E-004  1.3799000E-002  1.0007500E-004
  2.8918000E-004  1.3590200E-002  1.0034100E-004
  3.0181500E-004  1.3378900E-002  1.0070100E-004
  3.1479700E-004  1.3164700E-002  1.0116100E-004
  3.2807800E-004  1.2947700E-002  1.0172500E-004
  3.4155300E-004  1.2727700E-002  1.0239500E-004
  3.5517900E-004  1.2504800E-002  1.0317300E-004
  3.6883700E-004  1.2279100E-002  1.0405800E-004
  3.8247900E-004  1.2050500E-002  1.0504800E-004
  3.9599400E-004  1.1819300E-002  1.0613800E-004
  4.0931700E-004  1.1585300E-002  1.0732600E-004
  4.2236300E-004  1.1349000E-002  1.0860300E-004
  4.3504200E-004  1.1110200E-002  1.0996200E-004
  4.4730600E-004  1.0869500E-002  1.1139400E-004
  4.5904300E-004  1.0626800E-002  1.1289000E-004
  4.7024000E-004  1.0382500E-002  1.1443700E-004
  4.8077500E-004  1.0136900E-002  1.1602500E-004
  4.9065700E-004  9.8900300E-003  1.1764100E-004
  4.9977800E-004  9.6425500E-003  1.1927200E-004
  5.0814600E-004  9.3943500E-003  1.2090700E-004
  5.1569500E-004  9.1461700E-003  1.2252900E-004
  5.2240700E-004  8.8978900E-003  1.2412900E-004
  5.2827700E-004  8.6501900E-003  1.2569100E-004
  5.3325400E-004  8.4031000E-003  1.2720400E-004
  5.3739300E-004  8.1570900E-003  1.2865500E-004
  5.4061800E-004  7.9124400E-003  1.3003400E-004
  5.4302500E-004  7.6692900E-003  1.3132800E-004
  5.4453800E-004  7.4282200E-003  1.3252800E-004
  5.4526300E-004  7.1890600E-003  1.3362500E-004
  5.4515600E-004  6.9525900E-003  1.3461100E-004
  5.4429400E-004  6.7184600E-003  1.3547800E-004
  5.4269600E-004  6.4874500E-003  1.3622000E-004
  5.4038200E-004  6.2592600E-003  1.3683300E-004
  5.3744600E-004  6.0344500E-003  1.3731200E-004
  5.3385100E-004  5.8129500E-003  1.3765400E-004
  5.2974500E-004  5.5949400E-003  1.3785800E-004
  5.2505800E-004  5.3806900E-003  1.3792200E-004
  5.1995700E-004  5.1699500E-003  1.3784700E-004
  5.1437200E-004  4.9633100E-003  1.3763300E-004
  5.0844800E-004  4.7602000E-003  1.3728400E-004
  5.0215300E-004  4.5613800E-003  1.3679900E-004
  4.9557200E-004  4.3661500E-003  1.3618300E-004
  4.8872900E-004  4.1751900E-003  1.3543900E-004
  4.8164600E-004  3.9879600E-003  1.3457300E-004
  4.7438800E-004  3.8048400E-003  1.3358700E-004
  4.6693300E-004  3.6256000E-003  1.3248800E-004
  4.5935900E-004  3.4502600E-003  1.3128000E-004
  4.5163400E-004  3.2789000E-003  1.2996700E-004
  4.4380400E-004  3.1112400E-003  1.2855700E-004
  4.3587200E-004  2.9475900E-003  1.2705200E-004
  4.2781000E-004  2.7875200E-003  1.2546000E-004
  4.1968900E-004  2.6313700E-003  1.2378300E-004
  4.1138700E-004  2.4788200E-003  1.2202600E-004
  4.0304600E-004  2.3299800E-003  1.2019300E-004
  3.9445900E-004  2.1848900E-003  1.1828800E-004
  3.8582200E-004  2.0432700E-003  1.1631200E-004
  3.7686600E-004  1.9056200E-003  1.1426700E-004
  3.6781800E-004  1.7712300E-003  1.1215400E-004
  3.5837200E-004  1.6410500E-003  1.0997100E-004
  3.4875700E-004  1.5140100E-003  1.0771600E-004
  3.3866000E-004  1.3914500E-003  1.0538500E-004
  3.2829200E-004  1.2720500E-003  1.0297200E-004
  3.1734600E-004  1.1573700E-003  1.0046900E-004
  3.0601100E-004  1.0460200E-003  9.7861600E-005
  2.9398300E-004  9.3968100E-004  9.5136600E-005
  2.8143800E-004  8.3694100E-004  9.2272400E-005
  2.6807600E-004  7.3961900E-004  8.9245200E-005
  2.5404700E-004  6.4618900E-004  8.6020600E-005
  2.3908800E-004  5.5880000E-004  8.2561500E-005
  2.2326600E-004  4.7554400E-004  7.8813800E-005
  2.0645600E-004  3.9926600E-004  7.4720300E-005
  1.8848100E-004  3.2721500E-004  7.0197200E-005
  1.6961200E-004  2.6350700E-004  6.5155900E-005
  1.4904000E-004  2.0385400E-004  5.9466500E-005
  1.2800400E-004  1.5452000E-004  5.2991700E-005
  1.0422300E-004  1.0855900E-004  4.5522700E-005
  8.1267400E-005  7.6073900E-005  3.6852200E-005
  5.3659800E-005  4.4636700E-005  2.6627900E-005
  3.1660300E-005  3.2239000E-005  1.4608300E-005
  0.0000000E+000  0.0000000E+000  0.0000000E+000
  0.0000000E+000  0.0000000E+000  0.0000000E+000
  0.0000000E+000  0.0000000E+000  0.0000000E+000
  0.0000000E+000  0.0000000E+000  0.0000000E+000
  0.0000000E+000  0.0000000E+000  0.0000000E+000
  0.0000000E+000  0.0000000E+000  0.0000000E+000
  0.0000000E+000  0.0000000E+000  0.0000000E+000
  0.0000000E+000  0.0000000E+000  0.0000000E+000
  0.0000000E+000  0.0000000E+000  0.0000000E+000
  0.0000000E+000  0.0000000E+000  0.0000000E+000
  0.0000000E+000  0.0000000E+000  0.0000000E+000
  0.0000000E+000  0.0000000E+000  0.0000000E+000
  0.0000000E+000  0.0000000E+000  0.0000000E+000
  0.0000000E+000  0.0000000E+000  0.0000000E+000
  0.0000000E+000  0.0000000E+000  0.0000000E+000
  0.0000000E+000  0.0000000E+000  0.0000000E+000
 -3.1166200E-005  3.3420900E-005 -2.2048300E-006
 -5.1648000E-005  4.5375900E-005 -2.3121700E-006
 -7.8496000E-005  7.6787300E-005 -1.1039700E-006
 -1.0038100E-004  1.0875100E-004  1.2071800E-006
 -1.2351700E-004  1.5449200E-004  4.2797900E-006
 -1.4385100E-004  2.0306200E-004  7.9244300E-006
 -1.6405100E-004  2.6249500E-004  1.1945100E-005
 -1.8261900E-004  3.2522900E-004  1.6217400E-005
 -2.0057500E-004  3.9707900E-004  2.0625900E-005
 -2.1753200E-004  4.7227400E-004  2.5091400E-005
 -2.3372700E-004  5.5528500E-004  2.9545500E-005
 -2.4931200E-004  6.4161700E-004  3.3939200E-005
 -2.6413700E-004  7.3466400E-004  3.8232500E-005
 -2.7860700E-004  8.3106900E-004  4.2397100E-005
 -2.9240200E-004  9.3322400E-004  4.6410400E-005
 -3.0601500E-004  1.0388400E-003  5.0258300E-005
 -3.1908100E-004  1.1493900E-003  5.3929000E-005
 -3.3208300E-004  1.2635100E-003  5.7418400E-005
 -3.4469100E-004  1.3819500E-003  6.0721400E-005
 -3.5731100E-004  1.5040400E-003  6.3840500E-005
 -3.6970000E-004  1.6300500E-003  6.6775200E-005
 -3.8215000E-004  1.7597000E-003  6.9532200E-005
 -3.9452200E-004  1.8931300E-003  7.2114700E-005
 -4.0699500E-004  2.0300900E-003  7.4531200E-005
 -4.1951700E-004  2.1708600E-003  7.6788300E-005
 -4.3218200E-004  2.3150400E-003  7.8895100E-005
 -4.4498700E-004  2.4631600E-003  8.0860600E-005
 -4.5797900E-004  2.6145900E-003  8.2694000E-005
 -4.7116500E-004  2.7701000E-003  8.4406300E-005
 -4.8458600E-004  2.9289000E-003  8.6006300E-005
 -4.9821600E-004  3.0918700E-003  8.7506000E-005
 -5.1212500E-004  3.2582300E-003  8.8914400E-005
 -5.2623200E-004  3.4287500E-003  9.0243400E-005
 -5.4063900E-004  3.6028500E-003  9.1502400E-005
 -5.5522200E-004  3.7810300E-003  9.2702100E-005
 -5.7009600E-004  3.9630200E-003  9.3852500E-005
 -5.8511400E-004  4.1489400E-003  9.4962800E-005
 -6.0038000E-004  4.3388800E-003  9.6042900E-005
 -6.1575400E-004  4.5326100E-003  9.7100600E-005
 -6.3129900E-004  4.7304700E-003  9.8145200E-005
 -6.4690900E-004  4.9320100E-003  9.9182800E-005
 -6.6258600E-004  5.1376300E-003  1.0022200E-004
 -6.7827200E-004  5.3468700E-003  1.0126600E-004
 -6.9390600E-004  5.5599800E-003  1.0232300E-004
 -7.0947100E-004  5.7766600E-003  1.0339600E-004
 -7.2486400E-004  5.9968800E-003  1.0448700E-004
 -7.4008800E-004  6.2205600E-003  1.0560000E-004
 -7.5502200E-004  6.4473900E-003  1.0673600E-004
 -7.6966600E-004  6.6774800E-003  1.0789400E-004
 -7.8391400E-004  6.9102700E-003  1.0907400E-004
 -7.9773700E-004  7.1459800E-003  1.1027400E-004
 -8.1106800E-004  7.3839700E-003  1.1148900E-004
 -8.2383800E-004  7.6243600E-003  1.1271800E-004
 -8.3602800E-004  7.8666200E-003  1.1395400E-004
 -8.4753600E-004  8.1106600E-003  1.1519000E-004
 -8.5838100E-004  8.3561300E-003  1.1642000E-004
 -8.6845000E-004  8.6026900E-003  1.1763700E-004
 -8.7778300E-004  8.8502000E-003  1.1883100E-004
 -8.8628000E-004  9.0980900E-003  1.1999200E-004
 -8.9397900E-004  9.3464000E-003  1.2111300E-004
 -9.0082100E-004  9.5944200E-003  1.2218000E-004
 -9.0682500E-004  9.8422400E-003  1.2318700E-004
 -9.1198600E-004  1.0089200E-002  1.2412000E-004
 -9.1629900E-004  1.0335300E-002  1.2497100E-004
 -9.1981500E-004  1.0580100E-002  1.2572900E-004
 -9.2251600E-004  1.0823300E-002  1.2638400E-004
 -9.2448700E-004  1.1064800E-002  1.2692800E-004
 -9.2572000E-004  1.1304100E-002  1.2735100E-004
 -9.2631100E-004  1.1541400E-002  1.2764900E-004
 -9.2628500E-004  1.1776100E-002  1.2781300E-004
 -9.2571900E-004  1.2008400E-002  1.2784000E-004
 -9.2469400E-004  1.2237800E-002  1.2772500E-004
 -9.2324700E-004  1.2464500E-002  1.2746900E-004
 -9.2151800E-004  1.2688200E-002  1.2707100E-004
 -9.1950200E-004  1.2909100E-002  1.2653300E-004
 -9.1738400E-004  1.3127100E-002  1.2585900E-004
 -9.1513100E-004  1.3342000E-002  1.2505600E-004
 -9.1294300E-004  1.3554300E-002  1.2413100E-004
 -9.1077500E-004  1.3763600E-002  1.2309500E-004
 -9.0882000E-004  1.3970500E-002  1.2196000E-004
 -9.0703100E-004  1.4174500E-002  1.2074000E-004
 -9.0557700E-004  1.4376600E-002  1.1945000E-004
 -9.0440700E-004  1.4576100E-002  1.1810600E-004
 -9.0367000E-004  1.4774000E-002  1.1672800E-004
 -9.0329100E-004  1.4969800E-002  1.1533400E-004
 -9.0341300E-004  1.5164400E-002  1.1394400E-004
 -9.0391500E-004  1.5357200E-002  1.1257800E-004
 -9.0495300E-004  1.5549400E-002  1.1125500E-004
 -9.0633900E-004  1.5740100E-002  1.0999500E-004
 -9.0826300E-004  1.5930800E-002  1.0881500E-004
 -9.1044300E-004  1.6120100E-002  1.0773200E-004
 -9.1314400E-004  1.6310100E-002  1.0676000E-004
 -9.1594100E-004  1.6498700E-002  1.0591300E-004
 -9.1926500E-004  1.6688600E-002  1.0519600E-004
 -9.2241500E-004  1.6876800E-002  1.0461900E-004
 -9.2621700E-004  1.7067200E-002  1.0417900E-004
 -9.2933300E-004  1.7255100E-002  1.0388000E-004
 -9.3358100E-004  1.7446400E-002  1.0370400E-004
 -9.3589000E-004  1.7633400E-002  1.0364400E-004
 -8.6506300E-004  1.7637400E-002  1.0360700E-004
 -8.6112500E-004  1.7447100E-002  1.0367000E-004
 -8.5777400E-004  1.7258500E-002  1.0384700E-004
 -8.5417700E-004  1.7068400E-002  1.0414600E-004
 -8.5070000E-004  1.6879900E-002  1.0458100E-004
 -8.4737600E-004  1.6690200E-002  1.0515100E-004
 -8.4414600E-004  1.6501600E-002  1.0585800E-004
 -8.4121800E-004  1.6312000E-002  1.0669400E-004
 -8.3846400E-004  1.6123000E-002  1.0765200E-004
 -8.3608300E-004  1.5932900E-002  1.0871800E-004
 -8.3396600E-004  1.5743000E-002  1.0988100E-004
 -8.3225400E-004  1.5551900E-002  1.1112200E-004
 -8.3087300E-004  1.5360300E-002  1.1242500E-004
 -8.2989000E-004  1.5167200E-002  1.1377100E-004
 -8.2926600E-004  1.4973100E-002  1.1514100E-004
 -8.2900100E-004  1.4777100E-002  1.1651500E-004
 -8.2908000E-004  1.4579700E-002  1.1787400E-004
 -8.2945000E-004  1.4380000E-002  1.1919900E-004
 -8.3009900E-004  1.4178400E-002  1.2047200E-004
 -8.3095600E-004  1.3974100E-002  1.2167800E-004
 -8.3198200E-004  1.3767600E-002  1.2280000E-004
 -8.3311800E-004  1.3558200E-002  1.2382600E-004
 -8.3428400E-004  1.3346300E-002  1.2474300E-004
 -8.3544700E-004  1.3131300E-002  1.2554100E-004
 -8.3648800E-004  1.2913500E-002  1.2621300E-004
 -8.3739800E-004  1.2692600E-002  1.2675300E-004
 -8.3804200E-004  1.2468900E-002  1.2715600E-004
 -8.3841400E-004  1.2242300E-002  1.2742000E-004
 -8.3839600E-004  1.2012800E-002  1.2754600E-004
 -8.3795800E-004  1.1780600E-002  1.2753300E-004
 -8.3703200E-004  1.1545800E-002  1.2738700E-004
 -8.3554800E-004  1.1308600E-002  1.2711000E-004
 -8.3349900E-004  1.1069100E-002  1.2670900E-004
 -8.3078100E-004  1.0827500E-002  1.2619100E-004
 -8.2743900E-004  1.0584200E-002  1.2556400E-004
 -8.2335500E-004  1.0339300E-002  1.2483600E-004
 -8.1860100E-004  1.0093100E-002  1.2401600E-004
 -8.1307600E-004  9.8458700E-003  1.2311600E-004
 -8.0685100E-004  9.5980100E-003  1.2214400E-004
 -7.9987100E-004  9.3496600E-003  1.2111000E-004
 -7.9217600E-004  9.1013100E-003  1.2002500E-004
 -7.8377800E-004  8.8530800E-003  1.1889900E-004
 -7.7467600E-004  8.6054600E-003  1.1774100E-004
 -7.6494300E-004  8.3586200E-003  1.1656000E-004
 -7.5454900E-004  8.1129500E-003  1.1536400E-004
 -7.4360600E-004  7.8687100E-003  1.1416000E-004
 -7.3207900E-004  7.6261600E-003  1.1295700E-004
 -7.2008500E-004  7.3856500E-003  1.1176000E-004
 -7.0761000E-004  7.1473100E-003  1.1057300E-004
 -6.9474900E-004  6.9115400E-003  1.0940100E-004
 -6.8153200E-004  6.6783800E-003  1.0824700E-004
 -6.6800500E-004  6.4482300E-003  1.0711300E-004
 -6.5425500E-004  6.2211000E-003  1.0600000E-004
 -6.4027300E-004  5.9973000E-003  1.0490700E-004
 -6.2619000E-004  5.7768800E-003  1.0383300E-004
 -6.1196000E-004  5.5600100E-003  1.0277600E-004
 -5.9773100E-004  5.3468200E-003  1.0173400E-004
 -5.8345100E-004  5.1373200E-003  1.0070100E-004
 -5.6924300E-004  4.9317100E-003  9.9672300E-005
 -5.5508400E-004  4.7299000E-003  9.8642700E-005
 -5.4104200E-004  4.5320700E-003  9.7605100E-005
 -5.2714500E-004  4.3381200E-003  9.6552300E-005
 -5.1339100E-004  4.1481600E-003  9.5476100E-005
 -4.9985800E-004  3.9621300E-003  9.4368300E-005
 -4.8648800E-004  3.7800200E-003  9.3219500E-005
 -4.7338300E-004  3.6018900E-003  9.2020500E-005
 -4.6046000E-004  3.4275400E-003  9.0761600E-005
 -4.4780900E-004  3.2572100E-003  8.9432400E-005
 -4.3536400E-004  3.0905000E-003  8.8023200E-005
 -4.2315900E-004  2.9278000E-003  8.6523100E-005
 -4.1118400E-004  2.7686100E-003  8.4922400E-005
 -3.9938800E-004  2.6133800E-003  8.3210400E-005
 -3.8783400E-004  2.4615900E-003  8.1377300E-005
 -3.7638500E-004  2.3136900E-003  7.9413100E-005
 -3.6516400E-004  2.1692100E-003  7.7308500E-005
 -3.5397600E-004  2.0285800E-003  7.5054400E-005
 -3.4296400E-004  1.8913700E-003  7.2642400E-005
 -3.3192500E-004  1.7580200E-003  7.0065200E-005
 -3.2096900E-004  1.6281300E-003  6.7315700E-005
 -3.0993900E-004  1.5021900E-003  6.4388900E-005
 -2.9886400E-004  1.3797600E-003  6.1280400E-005
 -2.8767500E-004  1.2615300E-003  5.7988300E-005
 -2.7628800E-004  1.1468100E-003  5.4512300E-005
 -2.6474300E-004  1.0367400E-003  5.0855100E-005
 -2.5283100E-004  9.3016000E-004  4.7022700E-005
 -2.4071400E-004  8.2883800E-004  4.3024800E-005
 -2.2804000E-004  7.3100800E-004  3.8876500E-005
 -2.1512600E-004  6.3922200E-004  3.4598600E-005
 -2.0141100E-004  5.5094000E-004  3.0219800E-005
 -1.8748500E-004  4.6967800E-004  2.5777700E-005
 -1.7239400E-004  3.9193700E-004  2.1322100E-005
 -1.5727900E-004  3.2242000E-004  1.6916600E-005
 -1.4037000E-004  2.5639000E-004  1.2643100E-005
 -1.2398300E-004  2.0011500E-004  8.6066500E-006
 -1.0463400E-004  1.4712800E-004  4.9386000E-006
 -8.7100600E-005  1.0592600E-004  1.8124400E-006
 -6.4414600E-005  6.7655200E-005 -5.6815700E-007
 -4.6579100E-005  4.3444400E-005 -1.9143400E-006
 -1.9807300E-005  2.1981300E-005 -1.9841400E-006
 -7.9262000E-004  1.7639300E-002  1.0349500E-004
 -7.8965500E-004  1.7449600E-002  1.0357200E-004
 -7.8578400E-004  1.7260300E-002  1.0375100E-004
 -7.8234400E-004  1.7071000E-002  1.0404700E-004
 -7.7886500E-004  1.6881700E-002  1.0446800E-004
 -7.7543200E-004  1.6692800E-002  1.0501900E-004
 -7.7228000E-004  1.6503500E-002  1.0569800E-004
 -7.6913600E-004  1.6314600E-002  1.0650100E-004
 -7.6638200E-004  1.6125100E-002  1.0741900E-004
 -7.6370500E-004  1.5935700E-002  1.0844100E-004
 -7.6144500E-004  1.5745400E-002  1.0955300E-004
 -7.5934200E-004  1.5554700E-002  1.1074200E-004
 -7.5764300E-004  1.5362900E-002  1.1198900E-004
 -7.5615600E-004  1.5170200E-002  1.1327800E-004
 -7.5503300E-004  1.4975900E-002  1.1459000E-004
 -7.5413700E-004  1.4780400E-002  1.1590700E-004
 -7.5354400E-004  1.4582800E-002  1.1721100E-004
 -7.5315000E-004  1.4383500E-002  1.1848500E-004
 -7.5298400E-004  1.4181800E-002  1.1971100E-004
 -7.5294400E-004  1.3977800E-002  1.2087400E-004
 -7.5305100E-004  1.3771300E-002  1.2196100E-004
 -7.5317600E-004  1.3562100E-002  1.2295700E-004
 -7.5335600E-004  1.3350100E-002  1.2385300E-004
 -7.5343000E-004  1.3135300E-002  1.2463800E-004
 -7.5345400E-004  1.2917500E-002  1.2530600E-004
 -7.5325000E-004  1.2696800E-002  1.2585000E-004
 -7.5287400E-004  1.2473100E-002  1.2626600E-004
 -7.5216700E-004  1.2246500E-002  1.2655300E-004
 -7.5115400E-004  1.2017000E-002  1.2671100E-004
 -7.4973200E-004  1.1784800E-002  1.2673900E-004
 -7.4787100E-004  1.1550000E-002  1.2664200E-004
 -7.4554300E-004  1.1312700E-002  1.2642300E-004
 -7.4266100E-004  1.1073200E-002  1.2608800E-004
 -7.3927000E-004  1.0831600E-002  1.2564200E-004
 -7.3524300E-004  1.0588100E-002  1.2509300E-004
 -7.3067100E-004  1.0343100E-002  1.2445000E-004
 -7.2542800E-004  1.0096800E-002  1.2372000E-004
 -7.1960700E-004  9.8494900E-003  1.2291200E-004
 -7.1312500E-004  9.6014400E-003  1.2203700E-004
 -7.0604100E-004  9.3529800E-003  1.2110200E-004
 -6.9834400E-004  9.1044100E-003  1.2011700E-004
 -6.9003800E-004  8.8560600E-003  1.1909200E-004
 -6.8119000E-004  8.6082200E-003  1.1803400E-004
 -6.7175300E-004  8.3612200E-003  1.1695200E-004
 -6.6185100E-004  8.1153500E-003  1.1585400E-004
 -6.5141600E-004  7.8709000E-003  1.1474600E-004
 -6.4058900E-004  7.6281800E-003  1.1363400E-004
 -6.2931800E-004  7.3874400E-003  1.1252500E-004
 -6.1771800E-004  7.1489400E-003  1.1142200E-004
 -6.0578800E-004  6.9129300E-003  1.1032900E-004
 -5.9358700E-004  6.6796400E-003  1.0924900E-004
 -5.8118100E-004  6.4492500E-003  1.0818300E-004
 -5.6856200E-004  6.2219900E-003  1.0713200E-004
 -5.5585600E-004  5.9979900E-003  1.0609700E-004
 -5.4300400E-004  5.7774200E-003  1.0507400E-004
 -5.3016200E-004  5.5604000E-003  1.0406300E-004
 -5.1725500E-004  5.3470500E-003  1.0306000E-004
 -5.0442400E-004  5.1374400E-003  1.0206100E-004
 -4.9162200E-004  4.9316700E-003  1.0106200E-004
 -4.7893000E-004  4.7297800E-003  1.0005600E-004
 -4.6636800E-004  4.5318100E-003  9.9037700E-005
 -4.5392700E-004  4.3377800E-003  9.7999700E-005
 -4.4170200E-004  4.1477300E-003  9.6934700E-005
 -4.2960400E-004  3.9616000E-003  9.5834500E-005
 -4.1778000E-004  3.7794500E-003  9.4690700E-005
 -4.0609300E-004  3.6011800E-003  9.3494100E-005
 -3.9469900E-004  3.4268600E-003  9.2235800E-005
 -3.8346500E-004  3.2563300E-003  9.0906100E-005
 -3.7250000E-004  3.0897200E-003  8.9495500E-005
 -3.6172600E-004  2.9267900E-003  8.7994300E-005
 -3.5116700E-004  2.7677300E-003  8.6392500E-005
 -3.4082600E-004  2.6122600E-003  8.4680800E-005
 -3.3062800E-004  2.4606100E-003  8.2849400E-005
 -3.2065200E-004  2.3124500E-003  8.0889000E-005
 -3.1075800E-004  2.1681100E-003  7.8790700E-005
 -3.0104800E-004  2.0272100E-003  7.6545900E-005
 -2.9137700E-004  1.8901500E-003  7.4146600E-005
 -2.8180600E-004  1.7564800E-003  7.1585600E-005