# vtk DataFile Version 3.0
MMH: CalculiX output 'object.frd' file to 'vtk' format
ASCII
DATASET UNSTRUCTURED_GRID
POINTS 3232 double
 6.00000000E-001 2.10000000E-001 0.00000000E+000
 6.00000000E-001 2.08667000E-001 0.00000000E+000
 6.00000000E-001 2.07333000E-001 0.00000000E+000
 6.00000000E-001 2.06000000E-001 0.00000000E+000
 6.00000000E-001 2.04667000E-001 0.00000000E+000
 6.00000000E-001 2.03333000E-001 0.00000000E+000
 6.00000000E-001 2.02000000E-001 0.00000000E+000
 6.00000000E-001 2.00667000E-001 0.00000000E+000
 6.00000000E-001 1.99333000E-001 0.00000000E+000
 6.00000000E-001 1.98000000E-001 0.00000000E+000
 6.00000000E-001 1.96667000E-001 0.00000000E+000
 6.00000000E-001 1.95333000E-001 0.00000000E+000
 6.00000000E-001 1.94000000E-001 0.00000000E+000
 6.00000000E-001 1.92667000E-001 0.00000000E+000
 6.00000000E-001 1.91333000E-001 0.00000000E+000
 6.00000000E-001 1.90000000E-001 0.00000000E+000
 5.96490000E-001 1.90000000E-001 0.00000000E+000
 5.92980000E-001 1.90000000E-001 0.00000000E+000
 5.89470000E-001 1.90000000E-001 0.00000000E+000
 5.85960000E-001 1.90000000E-001 0.00000000E+000
 5.82449000E-001 1.90000000E-001 0.00000000E+000
 5.78939000E-001 1.90000000E-001 0.00000000E+000
 5.75429000E-001 1.90000000E-001 0.00000000E+000
 5.71919000E-001 1.90000000E-001 0.00000000E+000
 5.68409000E-001 1.90000000E-001 0.00000000E+000
 5.64899000E-001 1.90000000E-001 0.00000000E+000
 5.61389000E-001 1.90000000E-001 0.00000000E+000
 5.57879000E-001 1.90000000E-001 0.00000000E+000
 5.54369000E-001 1.90000000E-001 0.00000000E+000
 5.50859000E-001 1.90000000E-001 0.00000000E+000
 5.47348000E-001 1.90000000E-001 0.00000000E+000
 5.43838000E-001 1.90000000E-001 0.00000000E+000
 5.40328000E-001 1.90000000E-001 0.00000000E+000
 5.36818000E-001 1.90000000E-001 0.00000000E+000
 5.33308000E-001 1.90000000E-001 0.00000000E+000
 5.29798000E-001 1.90000000E-001 0.00000000E+000
 5.26288000E-001 1.90000000E-001 0.00000000E+000
 5.22778000E-001 1.90000000E-001 0.00000000E+000
 5.19268000E-001 1.90000000E-001 0.00000000E+000
 5.15758000E-001 1.90000000E-001 0.00000000E+000
 5.12247000E-001 1.90000000E-001 0.00000000E+000
 5.08737000E-001 1.90000000E-001 0.00000000E+000
 5.05227000E-001 1.90000000E-001 0.00000000E+000
 5.01717000E-001 1.90000000E-001 0.00000000E+000
 4.98207000E-001 1.90000000E-001 0.00000000E+000
 4.94697000E-001 1.90000000E-001 0.00000000E+000
 4.91187000E-001 1.90000000E-001 0.00000000E+000
 4.87677000E-001 1.90000000E-001 0.00000000E+000
 4.84167000E-001 1.90000000E-001 0.00000000E+000
 4.80657000E-001 1.90000000E-001 0.00000000E+000
 4.77146000E-001 1.90000000E-001 0.00000000E+000
 4.73636000E-001 1.90000000E-001 0.00000000E+000
 4.70126000E-001 1.90000000E-001 0.00000000E+000
 4.66616000E-001 1.90000000E-001 0.00000000E+000
 4.63106000E-001 1.90000000E-001 0.00000000E+000
 4.59596000E-001 1.90000000E-001 0.00000000E+000
 4.56086000E-001 1.90000000E-001 0.00000000E+000
 4.52576000E-001 1.90000000E-001 0.00000000E+000
 4.49066000E-001 1.90000000E-001 0.00000000E+000
 4.45556000E-001 1.90000000E-001 0.00000000E+000
 4.42045000E-001 1.90000000E-001 0.00000000E+000
 4.38535000E-001 1.90000000E-001 0.00000000E+000
 4.35025000E-001 1.90000000E-001 0.00000000E+000
 4.31515000E-001 1.90000000E-001 0.00000000E+000
 4.28005000E-001 1.90000000E-001 0.00000000E+000
 4.24495000E-001 1.90000000E-001 0.00000000E+000
 4.20985000E-001 1.90000000E-001 0.00000000E+000
 4.17475000E-001 1.90000000E-001 0.00000000E+000
 4.13965000E-001 1.90000000E-001 0.00000000E+000
 4.10455000E-001 1.90000000E-001 0.00000000E+000
 4.06944000E-001 1.90000000E-001 0.00000000E+000
 4.03434000E-001 1.90000000E-001 0.00000000E+000
 3.99924000E-001 1.90000000E-001 0.00000000E+000
 3.96414000E-001 1.90000000E-001 0.00000000E+000
 3.92904000E-001 1.90000000E-001 0.00000000E+000
 3.89394000E-001 1.90000000E-001 0.00000000E+000
 3.85884000E-001 1.90000000E-001 0.00000000E+000
 3.82374000E-001 1.90000000E-001 0.00000000E+000
 3.78864000E-001 1.90000000E-001 0.00000000E+000
 3.75353000E-001 1.90000000E-001 0.00000000E+000
 3.71843000E-001 1.90000000E-001 0.00000000E+000
 3.68333000E-001 1.90000000E-001 0.00000000E+000
 3.64823000E-001 1.90000000E-001 0.00000000E+000
 3.61313000E-001 1.90000000E-001 0.00000000E+000
 3.57803000E-001 1.90000000E-001 0.00000000E+000
 3.54293000E-001 1.90000000E-001 0.00000000E+000
 3.50783000E-001 1.90000000E-001 0.00000000E+000
 3.47273000E-001 1.90000000E-001 0.00000000E+000
 3.43763000E-001 1.90000000E-001 0.00000000E+000
 3.40252000E-001 1.90000000E-001 0.00000000E+000
 3.36742000E-001 1.90000000E-001 0.00000000E+000
 3.33232000E-001 1.90000000E-001 0.00000000E+000
 3.29722000E-001 1.90000000E-001 0.00000000E+000
 3.26212000E-001 1.90000000E-001 0.00000000E+000
 3.22702000E-001 1.90000000E-001 0.00000000E+000
 3.19192000E-001 1.90000000E-001 0.00000000E+000
 3.15682000E-001 1.90000000E-001 0.00000000E+000
 3.12172000E-001 1.90000000E-001 0.00000000E+000
 3.08661000E-001 1.90000000E-001 0.00000000E+000
 3.05151000E-001 1.90000000E-001 0.00000000E+000
 3.01641000E-001 1.90000000E-001 0.00000000E+000
 2.98131000E-001 1.90000000E-001 0.00000000E+000
 2.94621000E-001 1.90000000E-001 0.00000000E+000
 2.91111000E-001 1.90000000E-001 0.00000000E+000
 2.87601000E-001 1.90000000E-001 0.00000000E+000
 2.84091000E-001 1.90000000E-001 0.00000000E+000
 2.80581000E-001 1.90000000E-001 0.00000000E+000
 2.77071000E-001 1.90000000E-001 0.00000000E+000
 2.73560000E-001 1.90000000E-001 0.00000000E+000
 2.70050000E-001 1.90000000E-001 0.00000000E+000
 2.66540000E-001 1.90000000E-001 0.00000000E+000
 2.63030000E-001 1.90000000E-001 0.00000000E+000
 2.59520000E-001 1.90000000E-001 0.00000000E+000
 2.56010000E-001 1.90000000E-001 0.00000000E+000
 2.52500000E-001 1.90000000E-001 0.00000000E+000
 2.48990000E-001 1.90000000E-001 0.00000000E+000
 2.48990000E-001 1.91333000E-001 0.00000000E+000
 2.48990000E-001 1.92667000E-001 0.00000000E+000
 2.48990000E-001 1.94000000E-001 0.00000000E+000
 2.48990000E-001 1.95333000E-001 0.00000000E+000
 2.48990000E-001 1.96667000E-001 0.00000000E+000
 2.48990000E-001 1.98000000E-001 0.00000000E+000
 2.48990000E-001 1.99333000E-001 0.00000000E+000
 2.48990000E-001 2.00667000E-001 0.00000000E+000
 2.48990000E-001 2.02000000E-001 0.00000000E+000
 2.48990000E-001 2.03333000E-001 0.00000000E+000
 2.48990000E-001 2.04667000E-001 0.00000000E+000
 2.48990000E-001 2.06000000E-001 0.00000000E+000
 2.48990000E-001 2.07333000E-001 0.00000000E+000
 2.48990000E-001 2.08667000E-001 0.00000000E+000
 2.48990000E-001 2.10000000E-001 0.00000000E+000
 2.52500000E-001 2.10000000E-001 0.00000000E+000
 2.56010000E-001 2.10000000E-001 0.00000000E+000
 2.59520000E-001 2.10000000E-001 0.00000000E+000
 2.63030000E-001 2.10000000E-001 0.00000000E+000
 2.66540000E-001 2.10000000E-001 0.00000000E+000
 2.70050000E-001 2.10000000E-001 0.00000000E+000
 2.73560000E-001 2.10000000E-001 0.00000000E+000
 2.77071000E-001 2.10000000E-001 0.00000000E+000
 2.80581000E-001 2.10000000E-001 0.00000000E+000
 2.84091000E-001 2.10000000E-001 0.00000000E+000
 2.87601000E-001 2.10000000E-001 0.00000000E+000
 2.91111000E-001 2.10000000E-001 0.00000000E+000
 2.94621000E-001 2.10000000E-001 0.00000000E+000
 2.98131000E-001 2.10000000E-001 0.00000000E+000
 3.01641000E-001 2.10000000E-001 0.00000000E+000
 3.05151000E-001 2.10000000E-001 0.00000000E+000
 3.08661000E-001 2.10000000E-001 0.00000000E+000
 3.12172000E-001 2.10000000E-001 0.00000000E+000
 3.15682000E-001 2.10000000E-001 0.00000000E+000
 3.19192000E-001 2.10000000E-001 0.00000000E+000
 3.22702000E-001 2.10000000E-001 0.00000000E+000
 3.26212000E-001 2.10000000E-001 0.00000000E+000
 3.29722000E-001 2.10000000E-001 0.00000000E+000
 3.33232000E-001 2.10000000E-001 0.00000000E+000
 3.36742000E-001 2.10000000E-001 0.00000000E+000
 3.40252000E-001 2.10000000E-001 0.00000000E+000
 3.43763000E-001 2.10000000E-001 0.00000000E+000
 3.47273000E-001 2.10000000E-001 0.00000000E+000
 3.50783000E-001 2.10000000E-001 0.00000000E+000
 3.54293000E-001 2.10000000E-001 0.00000000E+000
 3.57803000E-001 2.10000000E-001 0.00000000E+000
 3.61313000E-001 2.10000000E-001 0.00000000E+000
 3.64823000E-001 2.10000000E-001 0.00000000E+000
 3.68333000E-001 2.10000000E-001 0.00000000E+000
 3.71843000E-001 2.10000000E-001 0.00000000E+000
 3.75353000E-001 2.10000000E-001 0.00000000E+000
 3.78864000E-001 2.10000000E-001 0.00000000E+000
 3.82374000E-001 2.10000000E-001 0.00000000E+000
 3.85884000E-001 2.10000000E-001 0.00000000E+000
 3.89394000E-001 2.10000000E-001 0.00000000E+000
 3.92904000E-001 2.10000000E-001 0.00000000E+000
 3.96414000E-001 2.10000000E-001 0.00000000E+000
 3.99924000E-001 2.10000000E-001 0.00000000E+000
 4.03434000E-001 2.10000000E-001 0.00000000E+000
 4.06944000E-001 2.10000000E-001 0.00000000E+000
 4.10455000E-001 2.10000000E-001 0.00000000E+000
 4.13965000E-001 2.10000000E-001 0.00000000E+000
 4.17475000E-001 2.10000000E-001 0.00000000E+000
 4.20985000E-001 2.10000000E-001 0.00000000E+000
 4.24495000E-001 2.10000000E-001 0.00000000E+000
 4.28005000E-001 2.10000000E-001 0.00000000E+000
 4.31515000E-001 2.10000000E-001 0.00000000E+000
 4.35025000E-001 2.10000000E-001 0.00000000E+000
 4.38535000E-001 2.10000000E-001 0.00000000E+000
 4.42045000E-001 2.10000000E-001 0.00000000E+000
 4.45556000E-001 2.10000000E-001 0.00000000E+000
 4.49066000E-001 2.10000000E-001 0.00000000E+000
 4.52576000E-001 2.10000000E-001 0.00000000E+000
 4.56086000E-001 2.10000000E-001 0.00000000E+000
 4.59596000E-001 2.10000000E-001 0.00000000E+000
 4.63106000E-001 2.10000000E-001 0.00000000E+000
 4.66616000E-001 2.10000000E-001 0.00000000E+000
 4.70126000E-001 2.10000000E-001 0.00000000E+000
 4.73636000E-001 2.10000000E-001 0.00000000E+000
 4.77146000E-001 2.10000000E-001 0.00000000E+000
 4.80657000E-001 2.10000000E-001 0.00000000E+000
 4.84167000E-001 2.10000000E-001 0.00000000E+000
 4.87677000E-001 2.10000000E-001 0.00000000E+000
 4.91187000E-001 2.10000000E-001 0.00000000E+000
 4.94697000E-001 2.10000000E-001 0.00000000E+000
[...]
POINT_DATA 3232
VECTORS DISP double
 -2.3497400E-003 -3.0929300E-002 -1.0757300E-005
 -2.7225400E-003 -3.0876500E-002 -1.0877300E-005
 -3.0964200E-003 -3.0822800E-002 -1.1234900E-005
 -3.4696200E-003 -3.0769500E-002 -1.1803700E-005
 -3.8430800E-003 -3.0715900E-002 -1.2549700E-005
 -4.2163400E-003 -3.0662500E-002 -1.3441300E-005
 -4.5896700E-003 -3.0609100E-002 -1.4438500E-005
 -4.9628900E-003 -3.0555700E-002 -1.5499400E-005
 -5.3362000E-003 -3.0502400E-002 -1.6579400E-005
 -5.7094200E-003 -3.0449000E-002 -1.7633300E-005
 -6.0827000E-003 -3.0395700E-002 -1.8616400E-005
 -6.4559200E-003 -3.0342400E-002 -1.9487900E-005
 -6.8292700E-003 -3.0289200E-002 -2.0209500E-005
 -7.2024100E-003 -3.0235900E-002 -2.0750200E-005
 -7.5759400E-003 -3.0182600E-002 -2.1082700E-005
 -7.9488000E-003 -3.0129400E-002 -2.1193200E-005
 -7.8084800E-003 -2.9146700E-002 -2.1308500E-005
 -7.6674200E-003 -2.8164100E-002 -2.1650400E-005
 -7.5265200E-003 -2.7181500E-002 -2.2223100E-005
 -7.3850300E-003 -2.6198800E-002 -2.3039400E-005
 -7.2433200E-003 -2.5216500E-002 -2.4109900E-005
 -7.1009900E-003 -2.4234400E-002 -2.5445800E-005
 -6.9581900E-003 -2.3253100E-002 -2.7057100E-005
 -6.8146600E-003 -2.2272500E-002 -2.8952600E-005
 -6.6704800E-003 -2.1293200E-002 -3.1139000E-005
 -6.5254800E-003 -2.0315500E-002 -3.3621500E-005
 -6.3797100E-003 -1.9339900E-002 -3.6402100E-005
 -6.2330600E-003 -1.8366900E-002 -3.9481300E-005
 -6.0856000E-003 -1.7397200E-002 -4.2856100E-005
 -5.9372700E-003 -1.6431300E-002 -4.6522000E-005
 -5.7881500E-003 -1.5469900E-002 -5.0470800E-005
 -5.6382400E-003 -1.4513900E-002 -5.4692300E-005
 -5.4876200E-003 -1.3564000E-002 -5.9173600E-005
 -5.3363800E-003 -1.2621100E-002 -6.3898700E-005
 -5.1846000E-003 -1.1686100E-002 -6.8849800E-005
 -5.0324200E-003 -1.0759900E-002 -7.4005900E-005
 -4.8799200E-003 -9.8435300E-003 -7.9344600E-005
 -4.7273200E-003 -8.9380700E-003 -8.4839900E-005
 -4.5747000E-003 -8.0444000E-003 -9.0465400E-005
 -4.4223000E-003 -7.1637500E-003 -9.6191600E-005
 -4.2702200E-003 -6.2970700E-003 -1.0198800E-004
 -4.1187300E-003 -5.4455400E-003 -1.0782200E-004
 -3.9679500E-003 -4.6102500E-003 -1.1366200E-004
 -3.8181200E-003 -3.7922200E-003 -1.1947200E-004
 -3.6694200E-003 -2.9926500E-003 -1.2521900E-004
 -3.5220200E-003 -2.2124500E-003 -1.3086700E-004
 -3.3761500E-003 -1.4528400E-003 -1.3638200E-004
 -3.2319500E-003 -7.1466800E-004 -1.4172900E-004
 -3.0896500E-003  9.3292200E-007 -1.4687600E-004
 -2.9493500E-003  6.9313600E-004 -1.5178800E-004
 -2.8112500E-003  1.3609700E-003 -1.5643500E-004
 -2.6754700E-003  2.0036000E-003 -1.6078700E-004
 -2.5421500E-003  2.6202600E-003 -1.6481700E-004
 -2.4113900E-003  3.2101400E-003 -1.6849700E-004
 -2.2832800E-003  3.7726900E-003 -1.7180600E-004
 -2.1579200E-003  4.3071400E-003 -1.7472100E-004
 -2.0353500E-003  4.8131200E-003 -1.7722400E-004
 -1.9156400E-003  5.2899900E-003 -1.7930000E-004
 -1.7987900E-003  5.7375100E-003 -1.8093400E-004
 -1.6848400E-003  6.1552400E-003 -1.8211800E-004
 -1.5737700E-003  6.5430000E-003 -1.8284300E-004
 -1.4655900E-003  6.9005900E-003 -1.8310400E-004
 -1.3602500E-003  7.2278900E-003 -1.8290000E-004
 -1.2577300E-003  7.5249600E-003 -1.8223000E-004
 -1.1579800E-003  7.7917300E-003 -1.8109600E-004
 -1.0609500E-003  8.0284800E-003 -1.7950500E-004
 -9.6660100E-004  8.2352400E-003 -1.7746200E-004
 -8.7483300E-004  8.4124400E-003 -1.7497800E-004
 -7.8564200E-004  8.5602900E-003 -1.7206200E-004
 -6.9890100E-004  8.6792800E-003 -1.6872800E-004
 -6.1462800E-004  8.7698800E-003 -1.6498800E-004
 -5.3268800E-004  8.8325400E-003 -1.6085900E-004
 -4.5311800E-004  8.8680400E-003 -1.5635600E-004
 -3.7579200E-004  8.8767800E-003 -1.5149700E-004
 -3.0076000E-004  8.8598200E-003 -1.4630100E-004
 -2.2792200E-004  8.8175200E-003 -1.4078500E-004
 -1.5733400E-004  8.7511700E-003 -1.3496900E-004
 -8.8936000E-005  8.6611700E-003 -1.2887300E-004
 -2.2791000E-005  8.5489200E-003 -1.2251800E-004
  4.1124500E-005  8.4149500E-003 -1.1592200E-004
  1.0272800E-004  8.2606700E-003 -1.0910700E-004
  1.6202000E-004  8.0868300E-003 -1.0209300E-004
  2.1887700E-004  7.8947500E-003 -9.4901000E-005
  2.7330500E-004  7.6854400E-003 -8.7550800E-005
  3.2510800E-004  7.4601600E-003 -8.0062100E-005
  3.7433300E-004  7.2200300E-003 -7.2456200E-005
  4.2067600E-004  6.9664300E-003 -6.4751600E-005
  4.6426600E-004  6.7004200E-003 -5.6969900E-005
  5.0466500E-004  6.4236300E-003 -4.9129400E-005
  5.4210800E-004  6.1369000E-003 -4.1251600E-005
  5.7601400E-004  5.8422800E-003 -3.3355200E-005
  6.0673500E-004  5.5402000E-003 -2.5462100E-005
  6.3355400E-004  5.2333000E-003 -1.7592900E-005
  6.5693800E-004  4.9214500E-003 -9.7705200E-006
  6.7605600E-004  4.6079500E-003 -2.0186800E-006
  6.9147600E-004  4.2920800E-003  5.6368500E-006
  7.0228300E-004  3.9777600E-003  1.3167200E-005
  7.0912500E-004  3.6637700E-003  2.0540300E-005
  7.1104000E-004  3.3545600E-003  2.7719800E-005
  7.0873900E-004  3.0484200E-003  3.4662100E-005
  7.0124500E-004  2.7503600E-003  4.1318500E-005
  6.8930400E-004  2.4580900E-003  4.7626400E-005
  6.7198900E-004  2.1773400E-003  5.3517500E-005
  6.5000000E-004  1.9049400E-003  5.8898800E-005
  6.2260600E-004  1.6477800E-003  6.3670100E-005
  5.9025700E-004  1.4012000E-003  6.7691100E-005
  5.5274700E-004  1.1740300E-003  7.0810900E-005
  5.0980400E-004  9.5908500E-004  7.2814300E-005
  4.6245600E-004  7.6843900E-004  7.3470700E-005
  4.0868900E-004  5.9072700E-004  7.2442900E-005
  3.5225200E-004  4.4344600E-004  6.9374700E-005
  2.8719800E-004  3.0806000E-004  6.3715200E-005
  2.2354700E-004  2.1217500E-004  5.4921000E-005
  1.4701300E-004  1.2217900E-004  4.2046400E-005
  8.5402400E-005  8.7345000E-005  2.4453200E-005
  0.0000000E+000  0.0000000E+000  0.0000000E+000
  0.0000000E+000  0.0000000E+000  0.0000000E+000
  0.0000000E+000  0.0000000E+000  0.0000000E+000
  0.0000000E+000  0.0000000E+000  0.0000000E+000
  0.0000000E+000  0.0000000E+000  0.0000000E+000
  0.0000000E+000  0.0000000E+000  0.0000000E+000
  0.0000000E+000  0.0000000E+000  0.0000000E+000
  0.0000000E+000  0.0000000E+000  0.0000000E+000
  0.0000000E+000  0.0000000E+000  0.0000000E+000
  0.0000000E+000  0.0000000E+000  0.0000000E+000
  0.0000000E+000  0.0000000E+000  0.0000000E+000
  0.0000000E+000  0.0000000E+000  0.0000000E+000
  0.0000000E+000  0.0000000E+000  0.0000000E+000
  0.0000000E+000  0.0000000E+000  0.0000000E+000
  0.0000000E+000  0.0000000E+000  0.0000000E+000
  0.0000000E+000  0.0000000E+000  0.0000000E+000
 -9.3148100E-005  9.3703700E-005 -2.3882800E-005
 -1.5637100E-004  1.2559700E-004 -4.0913000E-005
 -2.3952200E-004  2.1401700E-004 -5.3240800E-005
 -3.0904000E-004  3.0517000E-004 -6.1440700E-005
 -3.8263300E-004  4.3707900E-004 -6.6474800E-005
 -4.4851000E-004  5.7841000E-004 -6.8889900E-005
 -5.1394900E-004  7.5175600E-004 -6.9257200E-005
 -5.7454700E-004  9.3582000E-004 -6.7949900E-005
 -6.3288300E-004  1.1460500E-003 -6.5323200E-005
 -6.8760800E-004  1.3666100E-003 -6.1627000E-005
 -7.3919200E-004  1.6085500E-003 -5.7091100E-005
 -7.8763100E-004  1.8596200E-003 -5.1884200E-005
 -8.3245900E-004  2.1277800E-003 -4.6158700E-005
 -8.7422600E-004  2.4034600E-003 -4.0028900E-005
 -9.1208800E-004  2.6921700E-003 -3.3598100E-005
 -9.4677600E-004  2.9865000E-003 -2.6944000E-005
 -9.7734300E-004  3.2900200E-003 -2.0138600E-005
 -1.0045200E-003  3.5970200E-003 -1.3234700E-005
 -1.0274000E-003  3.9095700E-003 -6.2837300E-006
 -1.0466100E-003  4.2232300E-003  6.7798400E-007
 -1.0614000E-003  4.5390000E-003  7.6128600E-006
 -1.0722300E-003  4.8533100E-003  1.4495500E-005
 -1.0785300E-003  5.1665100E-003  2.1298300E-005
 -1.0806100E-003  5.4755000E-003  2.8002600E-005
 -1.0780700E-003  5.7803600E-003  3.4588000E-005
 -1.0711200E-003  6.0781500E-003  4.1039900E-005
 -1.0594900E-003  6.3689200E-003  4.7343600E-005
 -1.0433400E-003  6.6497600E-003  5.3487000E-005
 -1.0224900E-003  6.9207500E-003  5.9459400E-005
 -9.9709700E-004  7.1790400E-003  6.5250100E-005
 -9.6704800E-004  7.4246800E-003  7.0851400E-005
 -9.3254900E-004  7.6550200E-003  7.6253900E-005
 -8.9351000E-004  7.8698900E-003  8.1451400E-005
 -8.5021300E-004  8.0670700E-003  8.6436000E-005
 -8.0259800E-004  8.2460300E-003  9.1201600E-005
 -7.5101500E-004  8.4050600E-003  9.5742100E-005
 -6.9545700E-004  8.5432200E-003  1.0005100E-004
 -6.3631500E-004  8.6593900E-003  1.0412300E-004
 -5.7367300E-004  8.7522600E-003  1.0795200E-004
 -5.0792600E-004  8.8211500E-003  1.1153300E-004
 -4.3928200E-004  8.8646100E-003  1.1485900E-004
 -3.6811400E-004  8.8822100E-003  1.1792700E-004
 -2.9476000E-004  8.8726100E-003  1.2072800E-004
 -2.1957700E-004  8.8353300E-003  1.2325900E-004
 -1.4300500E-004  8.7694700E-003  1.2551300E-004
 -6.5415200E-005  8.6743000E-003  1.2748600E-004
  1.2702200E-005  8.5494800E-003  1.2917100E-004
  9.0924400E-005  8.3940100E-003  1.3056300E-004
  1.6876400E-004  8.2080800E-003  1.3165800E-004
  2.4571600E-004  7.9905500E-003  1.3244800E-004
  3.2134100E-004  7.7419700E-003  1.3293300E-004
  3.9504700E-004  7.4613100E-003  1.3310500E-004
  4.6644900E-004  7.1492000E-003  1.3296400E-004
  5.3491400E-004  6.8050400E-003  1.3250500E-004
  6.0007900E-004  6.4292600E-003  1.3172800E-004
  6.6134100E-004  6.0219000E-003  1.3063300E-004
  7.1831800E-004  5.5830800E-003  1.2921900E-004
  7.7050700E-004  5.1135000E-003  1.2749200E-004
  8.1748100E-004  4.6130400E-003  1.2545200E-004
  8.5887900E-004  4.0829100E-003  1.2310700E-004
  8.9423700E-004  3.5229400E-003  1.2046400E-004
  9.2334000E-004  2.9345900E-003  1.1753300E-004
  9.4573500E-004  2.3179100E-003  1.1432500E-004
  9.6130900E-004  1.6743100E-003  1.1085400E-004
  9.6969500E-004  1.0042700E-003  1.0713600E-004
  9.7083000E-004  3.0900100E-004  1.0318600E-004
  9.6449500E-004 -4.1054900E-004  9.9025800E-005
  9.5064100E-004 -1.1534300E-003  9.4674600E-005
  9.2922200E-004 -1.9182900E-003  9.0156100E-005
  9.0019700E-004 -2.7043400E-003  8.5492800E-005
  8.6368400E-004 -3.5100200E-003  8.0710900E-005
  8.1967000E-004 -4.3345600E-003  7.5835300E-005
  7.6839000E-004 -5.1764000E-003  7.0893200E-005
  7.0990000E-004 -6.0346700E-003  6.5911200E-005
  6.4449900E-004 -6.9079400E-003  6.0916600E-005
  5.7233200E-004 -7.7952300E-003  5.5936500E-005
  4.9373100E-004 -8.6952400E-003  5.0997300E-005
  4.0893000E-004 -9.6069200E-003  4.6125300E-005
  3.1827200E-004 -1.0529200E-002  4.1345600E-005
  2.2206000E-004 -1.1460900E-002  3.6682600E-005
  1.2064800E-004 -1.2401100E-002  3.2158900E-005
  1.4379600E-005 -1.3348800E-002  2.7796200E-005
 -9.6385800E-005 -1.4303200E-002  2.3614100E-005
 -2.1128500E-004 -1.5263200E-002  1.9630500E-005
 -3.2996500E-004 -1.6228300E-002  1.5861500E-005
 -4.5205200E-004 -1.7197400E-002  1.2320800E-005
 -5.7722300E-004 -1.8170100E-002  9.0201500E-006
 -7.0509200E-004 -1.9145500E-002  5.9689300E-006
 -8.3539000E-004 -2.0123400E-002  3.1742500E-006
 -9.6772100E-004 -2.1102800E-002  6.4085000E-007
 -1.1018800E-003 -2.2083900E-002 -1.6288000E-006
 -1.2374800E-003 -2.3065600E-002 -3.6346300E-006
 -1.3743700E-003 -2.4048400E-002 -5.3782600E-006
 -1.5122000E-003 -2.5031100E-002 -6.8641800E-006
 -1.6508500E-003 -2.6014600E-002 -8.0970000E-006
 -1.7900600E-003 -2.6997500E-002 -9.0851000E-006
 -1.9296600E-003 -2.7981100E-002 -9.8347000E-006
 -2.0695800E-003 -2.8963500E-002 -1.0357100E-005
 -2.2093900E-003 -2.9947400E-002 -1.0661200E-005
 -2.5829400E-003 -2.9893300E-002 -1.0783200E-005
 -2.4427600E-003 -2.8910500E-002 -1.0486100E-005
 -2.3029400E-003 -2.7927200E-002 -9.9751500E-006
 -2.1632700E-003 -2.6944100E-002 -9.2436800E-006
 -2.0239300E-003 -2.5960600E-002 -8.2804700E-006
 -1.8851600E-003 -2.4977500E-002 -7.0789300E-006
 -1.7470000E-003 -2.3994300E-002 -5.6314200E-006
 -1.6098000E-003 -2.3011800E-002 -3.9330200E-006
 -1.4736100E-003 -2.2029600E-002 -1.9796800E-006
 -1.3388400E-003 -2.1048700E-002  2.3027700E-007
 -1.2055900E-003 -2.0068900E-002  2.6966900E-006
 -1.0742800E-003 -1.9091100E-002  5.4171000E-006
 -9.4507000E-004 -1.8115500E-002  8.3868500E-006
 -8.1839600E-004 -1.7142900E-002  1.1599000E-005
 -6.9446600E-004 -1.6173700E-002  1.5044300E-005
 -5.7370400E-004 -1.5208900E-002  1.8711400E-005
 -4.5637100E-004 -1.4248900E-002  2.2586900E-005
 -3.4287000E-004 -1.3294700E-002  2.6654900E-005
 -2.3349900E-004 -1.2347200E-002  3.0898300E-005
 -1.2863400E-004 -1.1407300E-002  3.5297600E-005
 -2.8585000E-005 -1.0475900E-002  3.9832000E-005
  6.6297800E-005 -9.5541400E-003  4.4479300E-005
  1.5571900E-004 -8.6429800E-003  4.9215800E-005
  2.3935900E-004 -7.7435400E-003  5.4017200E-005
  3.1696100E-004 -6.8569700E-003  5.8857900E-005
  3.8824200E-004 -5.9843700E-003  6.3712200E-005
  4.5299000E-004 -5.1270300E-003  6.8553700E-005
  5.1099800E-004 -4.2859600E-003  7.3356200E-005
  5.6209100E-004 -3.4625300E-003  7.8093500E-005
  6.0616300E-004 -2.6577300E-003  8.2739800E-005
  6.4307200E-004 -1.8729200E-003  8.7270200E-005
  6.7283400E-004 -1.1090900E-003  9.1660200E-005
  6.9534600E-004 -3.6749400E-004  9.5887200E-005
  7.1074600E-004  3.5084300E-004  9.9929200E-005
  7.1899100E-004  1.0448700E-003  1.0376600E-004
  7.2031400E-004  1.7135000E-003  1.0737900E-004
  7.1477000E-004  2.3559500E-003  1.1075200E-004
  7.0264100E-004  2.9710700E-003  1.1387000E-004
  6.8412100E-004  3.5583600E-003  1.1671900E-004
  6.5949600E-004  4.1167100E-003  1.1928900E-004
  6.2912000E-004  4.6458100E-003  1.2157000E-004
  5.9325300E-004  5.1447200E-003  1.2355600E-004
  5.5239800E-004  5.6132300E-003  1.2524000E-004
  5.0680100E-004  6.0507000E-003  1.2662000E-004
  4.5705800E-004  6.4569100E-003  1.2769100E-004
  4.0343600E-004  6.8315900E-003  1.2845500E-004
  3.4655100E-004  7.1745100E-003  1.2891000E-004
  2.8673600E-004  7.4858000E-003  1.2905900E-004
  2.2455800E-004  7.7651800E-003  1.2890300E-004
  1.6044200E-004  8.0131400E-003  1.2844600E-004
  9.4857200E-005  8.2294700E-003  1.2769200E-004
  2.8327400E-005  8.4148700E-003  1.2664500E-004
 -3.8792900E-005  8.5693300E-003  1.2530900E-004
 -1.0591300E-004  8.6936200E-003  1.2369000E-004
 -1.7276700E-004  8.7880100E-003  1.2179200E-004
 -2.3876000E-004  8.8532900E-003  1.1962100E-004
 -3.0367000E-004  8.8900400E-003  1.1718100E-004
 -3.6695900E-004  8.8990100E-003  1.1447900E-004
 -4.2840900E-004  8.8810700E-003  1.1151900E-004
 -4.8759200E-004  8.8369800E-003  1.0830700E-004
 -5.4425900E-004  8.7678000E-003  1.0484800E-004
 -5.9812400E-004  8.6744000E-003  1.0114800E-004
 -6.4890100E-004  8.5578900E-003  9.7210300E-005
 -6.9643900E-004  8.4193500E-003  9.3042000E-005
 -7.4044500E-004  8.2598000E-003  8.8647900E-005
 -7.8086000E-004  8.0806700E-003  8.4033800E-005
 -8.1743300E-004  7.8827600E-003  7.9205600E-005
 -8.5014800E-004  7.6678600E-003  7.4169400E-005
 -8.7883700E-004  7.4365800E-003  6.8931900E-005
 -9.0348200E-004  7.1910200E-003  6.3499900E-005
 -9.2403500E-004  6.9316000E-003  5.7881600E-005
 -9.4043900E-004  6.6607000E-003  5.2085000E-005
 -9.5277900E-004  6.3786100E-003  4.6120000E-005
 -9.6095300E-004  6.0878700E-003  3.9997100E-005
 -9.6515100E-004  5.7887000E-003  3.3728000E-005
 -9.6526000E-004  5.4838100E-003  2.7326400E-005
 -9.6152000E-004  5.1732700E-003  2.0807900E-005
 -9.5384900E-004  4.8600300E-003  1.4190300E-005
 -9.4247700E-004  4.5439000E-003  7.4941700E-006
 -9.2740200E-004  4.2282100E-003  7.4378300E-007
 -9.0877400E-004  3.9123100E-003 -6.0330000E-006
 -8.8672700E-004  3.6001400E-003 -1.2802700E-005
 -8.6125800E-004  3.2902900E-003 -1.9526400E-005
 -8.3269600E-004  2.9876400E-003 -2.6157400E-005
 -8.0079900E-004  2.6896700E-003 -3.2640200E-005
 -7.6618000E-004  2.4025500E-003 -3.8908300E-005
 -7.2821500E-004  2.1222400E-003 -4.4881300E-005
 -6.8799200E-004  1.8566400E-003 -5.0463000E-005
 -6.4420100E-004  1.5997100E-003 -5.5535600E-005
 -5.9882200E-004  1.3616200E-003 -5.9957200E-005
 -5.4924700E-004  1.1336500E-003 -6.3553800E-005
 -4.9920700E-004  9.2906300E-004 -6.6112500E-005
 -4.4354600E-004  7.3544300E-004 -6.7373200E-005
 -3.8950800E-004  5.7040400E-004 -6.7011700E-005
 -3.2686300E-004  4.1626300E-004 -6.4634200E-005
 -2.7001400E-004  2.9696700E-004 -5.9732900E-005
 -1.9860300E-004  1.8766500E-004 -5.1721200E-005
 -1.4218200E-004  1.1973200E-004 -3.9784700E-005
 -6.0650800E-005  6.0996700E-005 -2.3264900E-005
 -2.9559900E-003 -2.9839900E-002 -1.1143100E-005
 -2.8161900E-003 -2.8856900E-002 -1.0863500E-005
 -2.6760800E-003 -2.7873700E-002 -1.0387600E-005
 -2.5364100E-003 -2.6890400E-002 -9.7082400E-006
 -2.3969100E-003 -2.5907100E-002 -8.8165600E-006
 -2.2579000E-003 -2.4923700E-002 -7.7049000E-006
 -2.1194700E-003 -2.3940600E-002 -6.3672000E-006
 -1.9817800E-003 -2.2957800E-002 -4.7982500E-006
 -1.8451000E-003 -2.1975800E-002 -2.9948600E-006
 -1.7095400E-003 -2.0994600E-002 -9.5532400E-007
 -1.5754500E-003 -2.0015000E-002  1.3199400E-006
 -1.4429700E-003 -1.9037100E-002  3.8286200E-006
 -1.3125000E-003 -1.8061600E-002  6.5662200E-006
 -1.1841900E-003 -1.7089000E-002  9.5262600E-006
 -1.0584600E-003 -1.6120000E-002  1.2700100E-005
 -9.3552600E-004 -1.5155200E-002  1.6077100E-005
 -8.1578600E-004 -1.4195400E-002  1.9644700E-005
 -6.9948800E-004 -1.3241500E-002  2.3388400E-005
 -5.8702800E-004 -1.2294400E-002  2.7292100E-005
 -4.7867200E-004 -1.1354800E-002  3.1337900E-005
 -3.7479800E-004 -1.0423900E-002  3.5506600E-005
 -2.7566900E-004 -9.5027000E-003  3.9777700E-005
 -1.8164200E-004 -8.5921500E-003  4.4129400E-005
 -9.2956800E-005 -7.6934300E-003  4.8539300E-005
 -9.9391400E-006 -6.8076000E-003  5.2984000E-005
  6.7207200E-005 -5.9359000E-003  5.7439800E-005
  1.3820400E-004 -5.0794300E-003  6.1882700E-005
  2.0289300E-004 -4.2394100E-003  6.6288600E-005
  2.6107600E-004 -3.4169900E-003  7.0633700E-005
  3.1261900E-004 -2.6133800E-003  7.4894600E-005
  3.5744500E-004 -1.8297100E-003  7.9048400E-005
  3.9543100E-004 -1.0671500E-003  8.3073300E-005
  4.2664500E-004 -3.2682800E-004  8.6948300E-005
  4.5097900E-004  3.9020500E-004  9.0654000E-005
  4.6863600E-004  1.0828400E-003  9.4172000E-005
  4.7955500E-004  1.7501600E-003  9.7485700E-005
  4.8403000E-004  2.3911400E-003  1.0058000E-004
  4.8210300E-004  3.0049700E-003  1.0344200E-004
  4.7409600E-004  3.5907700E-003  1.0605900E-004
  4.6020300E-004  4.1478600E-003  1.0842300E-004
  4.4071300E-004  4.6755100E-003  1.1052400E-004
  4.1600700E-004  5.1731800E-003  1.1235700E-004
  3.8631300E-004  5.6403400E-003  1.1391600E-004
  3.5217200E-004  6.0765900E-003  1.1519900E-004
  3.1377500E-004  6.4815900E-003  1.1620400E-004
  2.7175500E-004  6.8551000E-003  1.1692900E-004
  2.2632000E-004  7.1969800E-003  1.1737500E-004
  1.7810100E-004  7.5071400E-003  1.1754400E-004
  1.2738500E-004  7.7856600E-003  1.1743700E-004
  7.4719300E-005  8.0325800E-003  1.1705700E-004
  2.0510700E-005  8.2481900E-003  1.1640900E-004
 -3.4832200E-005  8.4326800E-003  1.1549400E-004
 -9.0782900E-005  8.5865100E-003  1.1431800E-004
 -1.4706700E-004  8.7100500E-003  1.1288500E-004
 -2.0309200E-004  8.8039000E-003  1.1119800E-004
 -2.5867000E-004  8.8685800E-003  1.0926300E-004
 -3.1322500E-004  8.9048500E-003  1.0708400E-004
 -3.6658400E-004  8.9133500E-003  1.0466400E-004
 -4.1827300E-004  8.8949800E-003  1.0200900E-004
 -4.6807600E-004  8.8505200E-003  9.9123100E-005
 -5.1567800E-004  8.7809900E-003  9.6010000E-005
 -5.6078800E-004  8.6872400E-003  9.2674100E-005
 -6.0326800E-004  8.5704500E-003  8.9119800E-005
 -6.4276600E-004  8.4315300E-003  8.5351400E-005
 -6.7928700E-004  8.2718100E-003  8.1373500E-005
 -7.1247200E-004  8.0922000E-003  7.7190500E-005
 -7.4240800E-004  7.8942100E-003  7.2807500E-005
 -7.6878700E-004  7.6787200E-003  6.8229500E-005
 -7.9171800E-004  7.4474200E-003  6.3462100E-005
 -8.1099600E-004  7.2011200E-003  5.8511600E-005
 -8.2670300E-004  6.9417300E-003  5.3384300E-005
 -8.3876000E-004  6.6699400E-003  4.8088000E-005
 -8.4721500E-004  6.3878800E-003  4.2630900E-005
 -8.5208400E-004  6.0960800E-003  3.7022600E-005
 -8.5342100E-004  5.7969400E-003  3.1273700E-005
 -8.5127000E-004  5.4907900E-003  2.5396600E-005
 -8.4575800E-004  5.1803100E-003  1.9405500E-005
 -8.3686400E-004  4.8655500E-003  1.3316900E-005