# vtk DataFile Version 3.0
MMH: CalculiX output 'object.frd' file to 'vtk' format
ASCII
DATASET UNSTRUCTURED_GRID
POINTS 3232 double
 6.00000000E-001 2.10000000E-001 0.00000000E+000
 6.00000000E-001 2.08667000E-001 0.00000000E+000
 6.00000000E-001 2.07333000E-001 0.00000000E+000
 6.00000000E-001 2.06000000E-001 0.00000000E+000
 6.00000000E-001 2.04667000E-001 0.00000000E+000
 6.00000000E-001 2.03333000E-001 0.00000000E+000
 6.00000000E-001 2.02000000E-001 0.00000000E+000
 6.00000000E-001 2.00667000E-001 0.00000000E+000
 6.00000000E-001 1.99333000E-001 0.00000000E+000
 6.00000000E-001 1.98000000E-001 0.00000000E+000
 6.00000000E-001 1.96667000E-001 0.00000000E+000
 6.00000000E-001 1.95333000E-001 0.00000000E+000
 6.00000000E-001 1.94000000E-001 0.00000000E+000
 6.00000000E-001 1.92667000E-001 0.00000000E+000
 6.00000000E-001 1.91333000E-001 0.00000000E+000
 6.00000000E-001 1.90000000E-001 0.00000000E+000
 5.96490000E-001 1.90000000E-001 0.00000000E+000
 5.92980000E-001 1.90000000E-001 0.00000000E+000
 5.89470000E-001 1.90000000E-001 0.00000000E+000
 5.85960000E-001 1.90000000E-001 0.00000000E+000
 5.82449000E-001 1.90000000E-001 0.00000000E+000
 5.78939000E-001 1.90000000E-001 0.00000000E+000
 5.75429000E-001 1.90000000E-001 0.00000000E+000
 5.71919000E-001 1.90000000E-001 0.00000000E+000
 5.68409000E-001 1.90000000E-001 0.00000000E+000
 5.64899000E-001 1.90000000E-001 0.00000000E+000
 5.61389000E-001 1.90000000E-001 0.00000000E+000
 5.57879000E-001 1.90000000E-001 0.00000000E+000
 5.54369000E-001 1.90000000E-001 0.00000000E+000
 5.50859000E-001 1.90000000E-001 0.00000000E+000
 5.47348000E-001 1.90000000E-001 0.00000000E+000
 5.43838000E-001 1.90000000E-001 0.00000000E+000
 5.40328000E-001 1.90000000E-001 0.00000000E+000
 5.36818000E-001 1.90000000E-001 0.00000000E+000
 5.33308000E-001 1.90000000E-001 0.00000000E+000
 5.29798000E-001 1.90000000E-001 0.00000000E+000
 5.26288000E-001 1.90000000E-001 0.00000000E+000
 5.22778000E-001 1.90000000E-001 0.00000000E+000
 5.19268000E-001 1.90000000E-001 0.00000000E+000
 5.15758000E-001 1.90000000E-001 0.00000000E+000
 5.12247000E-001 1.90000000E-001 0.00000000E+000
 5.08737000E-001 1.90000000E-001 0.00000000E+000
 5.05227000E-001 1.90000000E-001 0.00000000E+000
 5.01717000E-001 1.90000000E-001 0.00000000E+000
 4.98207000E-001 1.90000000E-001 0.00000000E+000
 4.94697000E-001 1.90000000E-001 0.00000000E+000
 4.91187000E-001 1.90000000E-001 0.00000000E+000
 4.87677000E-001 1.90000000E-001 0.00000000E+000
 4.84167000E-001 1.90000000E-001 0.00000000E+000
 4.80657000E-001 1.90000000E-001 0.00000000E+000
 4.77146000E-001 1.90000000E-001 0.00000000E+000
 4.73636000E-001 1.90000000E-001 0.00000000E+000
 4.70126000E-001 1.90000000E-001 0.00000000E+000
 4.66616000E-001 1.90000000E-001 0.00000000E+000
 4.63106000E-001 1.90000000E-001 0.00000000E+000
 4.59596000E-001 1.90000000E-001 0.00000000E+000
 4.56086000E-001 1.90000000E-001 0.00000000E+000
 4.52576000E-001 1.90000000E-001 0.00000000E+000
 4.49066000E-001 1.90000000E-001 0.00000000E+000
 4.45556000E-001 1.90000000E-001 0.00000000E+000
 4.42045000E-001 1.90000000E-001 0.00000000E+000
 4.38535000E-001 1.90000000E-001 0.00000000E+000
 4.35025000E-001 1.90000000E-001 0.00000000E+000
 4.31515000E-001 1.90000000E-001 0.00000000E+000
 4.28005000E-001 1.90000000E-001 0.00000000E+000
 4.24495000E-001 1.90000000E-001 0.00000000E+000
 4.20985000E-001 1.90000000E-001 0.00000000E+000
 4.17475000E-001 1.90000000E-001 0.00000000E+000
 4.13965000E-001 1.90000000E-001 0.00000000E+000
 4.10455000E-001 1.90000000E-001 0.00000000E+000
 4.06944000E-001 1.90000000E-001 0.00000000E+000
 4.03434000E-001 1.90000000E-001 0.00000000E+000
 3.99924000E-001 1.90000000E-001 0.00000000E+000
 3.96414000E-001 1.90000000E-001 0.00000000E+000
 3.92904000E-001 1.90000000E-001 0.00000000E+000
 3.89394000E-001 1.90000000E-001 0.00000000E+000
 3.85884000E-001 1.90000000E-001 0.00000000E+000
 3.82374000E-001 1.90000000E-001 0.00000000E+000
 3.78864000E-001 1.90000000E-001 0.00000000E+000
 3.75353000E-001 1.90000000E-001 0.00000000E+000
 3.71843000E-001 1.90000000E-001 0.00000000E+000
 3.68333000E-001 1.90000000E-001 0.00000000E+000
 3.64823000E-001 1.90000000E-001 0.00000000E+000
 3.61313000E-001 1.90000000E-001 0.00000000E+000
 3.57803000E-001 1.90000000E-001 0.00000000E+000
 3.54293000E-001 1.90000000E-001 0.00000000E+000
 3.50783000E-001 1.90000000E-001 0.00000000E+000
 3.47273000E-001 1.90000000E-001 0.00000000E+000
 3.43763000E-001 1.90000000E-001 0.00000000E+000
 3.40252000E-001 1.90000000E-001 0.00000000E+000
 3.36742000E-001 1.90000000E-001 0.00000000E+000
 3.33232000E-001 1.90000000E-001 0.00000000E+000
 3.29722000E-001 1.90000000E-001 0.00000000E+000
 3.26212000E-001 1.90000000E-001 0.00000000E+000
 3.22702000E-001 1.90000000E-001 0.00000000E+000
 3.19192000E-001 1.90000000E-001 0.00000000E+000
 3.15682000E-001 1.90000000E-001 0.00000000E+000
 3.12172000E-001 1.90000000E-001 0.00000000E+000
 3.08661000E-001 1.90000000E-001 0.00000000E+000
 3.05151000E-001 1.90000000E-001 0.00000000E+000
 3.01641000E-001 1.90000000E-001 0.00000000E+000
 2.98131000E-001 1.90000000E-001 0.00000000E+000
 2.94621000E-001 1.90000000E-001 0.00000000E+000
 2.91111000E-001 1.90000000E-001 0.00000000E+000
 2.87601000E-001 1.90000000E-001 0.00000000E+000
 2.84091000E-001 1.90000000E-001 0.00000000E+000
 2.80581000E-001 1.90000000E-001 0.00000000E+000
 2.77071000E-001 1.90000000E-001 0.00000000E+000
 2.73560000E-001 1.90000000E-001 0.00000000E+000
 2.70050000E-001 1.90000000E-001 0.00000000E+000
 2.66540000E-001 1.90000000E-001 0.00000000E+000
 2.63030000E-001 1.90000000E-001 0.00000000E+000
 2.59520000E-001 1.90000000E-001 0.00000000E+000
 2.56010000E-001 1.90000000E-001 0.00000000E+000
 2.52500000E-001 1.90000000E-001 0.00000000E+000
 2.48990000E-001 1.90000000E-001 0.00000000E+000
 2.48990000E-001 1.91333000E-001 0.00000000E+000
 2.48990000E-001 1.92667000E-001 0.00000000E+000
 2.48990000E-001 1.94000000E-001 0.00000000E+000
 2.48990000E-001 1.95333000E-001 0.00000000E+000
 2.48990000E-001 1.96667000E-001 0.00000000E+000
 2.48990000E-001 1.98000000E-001 0.00000000E+000
 2.48990000E-001 1.99333000E-001 0.00000000E+000
 2.48990000E-001 2.00667000E-001 0.00000000E+000
 2.48990000E-001 2.02000000E-001 0.00000000E+000
 2.48990000E-001 2.03333000E-001 0.00000000E+000
 2.48990000E-001 2.04667000E-001 0.00000000E+000
 2.48990000E-001 2.06000000E-001 0.00000000E+000
 2.48990000E-001 2.07333000E-001 0.00000000E+000
 2.48990000E-001 2.08667000E-001 0.00000000E+000
 2.48990000E-001 2.10000000E-001 0.00000000E+000
 2.52500000E-001 2.10000000E-001 0.00000000E+000
 2.56010000E-001 2.10000000E-001 0.00000000E+000
 2.59520000E-001 2.10000000E-001 0.00000000E+000
 2.63030000E-001 2.10000000E-001 0.00000000E+000
 2.66540000E-001 2.10000000E-001 0.00000000E+000
 2.70050000E-001 2.10000000E-001 0.00000000E+000
 2.73560000E-001 2.10000000E-001 0.00000000E+000
 2.77071000E-001 2.10000000E-001 0.00000000E+000
 2.80581000E-001 2.10000000E-001 0.00000000E+000
 2.84091000E-001 2.10000000E-001 0.00000000E+000
 2.87601000E-001 2.10000000E-001 0.00000000E+000
 2.91111000E-001 2.10000000E-001 0.00000000E+000
 2.94621000E-001 2.10000000E-001 0.00000000E+000
 2.98131000E-001 2.10000000E-001 0.00000000E+000
 3.01641000E-001 2.10000000E-001 0.00000000E+000
 3.05151000E-001 2.10000000E-001 0.00000000E+000
 3.08661000E-001 2.10000000E-001 0.00000000E+000
 3.12172000E-001 2.10000000E-001 0.00000000E+000
 3.15682000E-001 2.10000000E-001 0.00000000E+000
 3.19192000E-001 2.10000000E-001 0.00000000E+000
 3.22702000E-001 2.10000000E-001 0.00000000E+000
 3.26212000E-001 2.10000000E-001 0.00000000E+000
 3.29722000E-001 2.10000000E-001 0.00000000E+000
 3.33232000E-001 2.10000000E-001 0.00000000E+000
 3.36742000E-001 2.10000000E-001 0.00000000E+000
 3.40252000E-001 2.10000000E-001 0.00000000E+000
 3.43763000E-001 2.10000000E-001 0.00000000E+000
 3.47273000E-001 2.10000000E-001 0.00000000E+000
 3.50783000E-001 2.10000000E-001 0.00000000E+000
 3.54293000E-001 2.10000000E-001 0.00000000E+000
 3.57803000E-001 2.10000000E-001 0.00000000E+000
 3.61313000E-001 2.10000000E-001 0.00000000E+000
 3.64823000E-001 2.10000000E-001 0.00000000E+000
 3.68333000E-001 2.10000000E-001 0.00000000E+000
 3.71843000E-001 2.10000000E-001 0.00000000E+000
 3.75353000E-001 2.10000000E-001 0.00000000E+000
 3.78864000E-001 2.10000000E-001 0.00000000E+000
 3.82374000E-001 2.10000000E-001 0.00000000E+000
 3.85884000E-001 2.10000000E-001 0.00000000E+000
 3.89394000E-001 2.10000000E-001 0.00000000E+000
 3.92904000E-001 2.10000000E-001 0.00000000E+000
 3.96414000E-001 2.10000000E-001 0.00000000E+000
 3.99924000E-001 2.10000000E-001 0.00000000E+000
 4.03434000E-001 2.10000000E-001 0.00000000E+000
 4.06944000E-001 2.10000000E-001 0.00000000E+000
 4.10455000E-001 2.10000000E-001 0.00000000E+000
 4.13965000E-001 2.10000000E-001 0.00000000E+000
 4.17475000E-001 2.10000000E-001 0.00000000E+000
 4.20985000E-001 2.10000000E-001 0.00000000E+000
 4.24495000E-001 2.10000000E-001 0.00000000E+000
 4.28005000E-001 2.10000000E-001 0.00000000E+000
 4.31515000E-001 2.10000000E-001 0.00000000E+000
 4.35025000E-001 2.10000000E-001 0.00000000E+000
 4.38535000E-001 2.10000000E-001 0.00000000E+000
 4.42045000E-001 2.10000000E-001 0.00000000E+000
 4.45556000E-001 2.10000000E-001 0.00000000E+000
 4.49066000E-001 2.10000000E-001 0.00000000E+000
 4.52576000E-001 2.10000000E-001 0.00000000E+000
 4.56086000E-001 2.10000000E-001 0.00000000E+000
 4.59596000E-001 2.10000000E-001 0.00000000E+000
 4.63106000E-001 2.10000000E-001 0.00000000E+000
 4.66616000E-001 2.10000000E-001 0.00000000E+000
 4.70126000E-001 2.10000000E-001 0.00000000E+000
 4.73636000E-001 2.10000000E-001 0.00000000E+000
 4.77146000E-001 2.10000000E-001 0.00000000E+000
 4.80657000E-001 2.10000000E-001 0.00000000E+000
 4.84167000E-001 2.10000000E-001 0.00000000E+000
 4.87677000E-001 2.10000000E-001 0.00000000E+000
 4.91187000E-001 2.10000000E-001 0.00000000E+000
 4.94697000E-001 2.10000000E-001 0.00000000E+000
[...]
POINT_DATA 3232
VECTORS DISP double
  1.3015000E-004 -2.2016000E-002  8.2434600E-005
 -2.0975200E-005 -2.2007600E-002  8.2426700E-005
 -1.7350300E-004 -2.1998700E-002  8.2392700E-005
 -3.2521600E-004 -2.1990000E-002  8.2337900E-005
 -4.7730800E-004 -2.1981200E-002  8.2273800E-005
 -6.2914600E-004 -2.1972400E-002  8.2203000E-005
 -7.8105400E-004 -2.1963700E-002  8.2131100E-005
 -9.3291500E-004 -2.1955000E-002  8.2060900E-005
 -1.0847500E-003 -2.1946200E-002  8.1997300E-005
 -1.2365800E-003 -2.1937500E-002  8.1944400E-005
 -1.3883000E-003 -2.1928800E-002  8.1904500E-005
 -1.5401800E-003 -2.1920100E-002  8.1882700E-005
 -1.6916100E-003 -2.1911400E-002  8.1879000E-005
 -1.8436700E-003 -2.1902800E-002  8.1898400E-005
 -1.9942100E-003 -2.1894100E-002  8.1924900E-005
 -2.1476100E-003 -2.1887000E-002  8.1933100E-005
 -2.1245600E-003 -2.1483800E-002  8.1908200E-005
 -2.1038900E-003 -2.1085500E-002  8.1902700E-005
 -2.0814300E-003 -2.0683600E-002  8.1952800E-005
 -2.0599200E-003 -2.0284500E-002  8.2061600E-005
 -2.0376700E-003 -1.9883400E-002  8.2240300E-005
 -2.0159100E-003 -1.9484100E-002  8.2482500E-005
 -1.9938000E-003 -1.9083600E-002  8.2787800E-005
 -1.9720000E-003 -1.8684300E-002  8.3145500E-005
 -1.9500200E-003 -1.8284100E-002  8.3547900E-005
 -1.9282800E-003 -1.7884800E-002  8.3981100E-005
 -1.9064300E-003 -1.7484800E-002  8.4433300E-005
 -1.8847500E-003 -1.7085300E-002  8.4888300E-005
 -1.8629800E-003 -1.6685200E-002  8.5332000E-005
 -1.8413000E-003 -1.6285400E-002  8.5747700E-005
 -1.8195000E-003 -1.5885100E-002  8.6120700E-005
 -1.7976800E-003 -1.5485000E-002  8.6435100E-005
 -1.7756900E-003 -1.5084500E-002  8.6677300E-005
 -1.7535700E-003 -1.4684100E-002  8.6833700E-005
 -1.7311700E-003 -1.4283400E-002  8.6892400E-005
 -1.7085400E-003 -1.3883000E-002  8.6843200E-005
 -1.6855000E-003 -1.3482400E-002  8.6677100E-005
 -1.6621300E-003 -1.3082400E-002  8.6387700E-005
 -1.6382200E-003 -1.2682600E-002  8.5969600E-005
 -1.6138500E-003 -1.2283600E-002  8.5420400E-005
 -1.5888500E-003 -1.1885300E-002  8.4738700E-005
 -1.5632800E-003 -1.1488200E-002  8.3925600E-005
 -1.5370000E-003 -1.1092600E-002  8.2984200E-005
 -1.5100400E-003 -1.0698600E-002  8.1918800E-005
 -1.4823200E-003 -1.0306700E-002  8.0736500E-005
 -1.4538500E-003 -9.9172100E-003  7.9444500E-005
 -1.4246000E-003 -9.5306600E-003  7.8053300E-005
 -1.3945500E-003 -9.1472000E-003  7.6572700E-005
 -1.3637400E-003 -8.7675200E-003  7.5015700E-005
 -1.3321200E-003 -8.3918400E-003  7.3394300E-005
 -1.2997600E-003 -8.0207600E-003  7.1722800E-005
 -1.2666400E-003 -7.6546800E-003  7.0015200E-005
 -1.2328400E-003 -7.2940000E-003  6.8286000E-005
 -1.1983600E-003 -6.9393500E-003  6.6550400E-005
 -1.1632800E-003 -6.5909100E-003  6.4822700E-005
 -1.1276400E-003 -6.2494600E-003  6.3118200E-005
 -1.0914900E-003 -5.9150700E-003  6.1450100E-005
 -1.0549400E-003 -5.5885000E-003  5.9833300E-005
 -1.0179900E-003 -5.2698500E-003  5.8279700E-005
 -9.8080700E-004 -4.9597400E-003  5.6802300E-005
 -9.4338200E-004 -4.6583600E-003  5.5411700E-005
 -9.0586900E-004 -4.3660900E-003  5.4118100E-005
 -8.6829500E-004 -4.0832800E-003  5.2930500E-005
 -8.3078500E-004 -3.8100400E-003  5.1855700E-005
 -7.9340100E-004 -3.5468500E-003  5.0900800E-005
 -7.5623100E-004 -3.2935800E-003  5.0069300E-005
 -7.1937300E-004 -3.0507600E-003  4.9365500E-005
 -6.8287400E-004 -2.8181500E-003  4.8790200E-005
 -6.4686400E-004 -2.5961500E-003  4.8344700E-005
 -6.1135800E-004 -2.3845800E-003  4.8027000E-005
 -5.7649400E-004 -2.1835900E-003  4.7835000E-005
 -5.4227600E-004 -1.9931300E-003  4.7764900E-005
 -5.0882900E-004 -1.8130500E-003  4.7811100E-005
 -4.7616700E-004 -1.6434700E-003  4.7968000E-005
 -4.4437700E-004 -1.4839500E-003  4.8227100E-005
 -4.1350300E-004 -1.3347300E-003  4.8581200E-005
 -3.8357800E-004 -1.1951800E-003  4.9019400E-005
 -3.5468500E-004 -1.0655100E-003  4.9532800E-005
 -3.2680200E-004 -9.4511300E-004  5.0109200E-005
 -3.0004100E-004 -8.3399800E-004  5.0737900E-005
 -2.7434500E-004 -7.3171200E-004  5.1406100E-005
 -2.4982900E-004 -6.3796300E-004  5.2101200E-005
 -2.2642800E-004 -5.5255700E-004  5.2810400E-005
 -2.0423400E-004 -4.7486100E-004  5.3519700E-005
 -1.8320000E-004 -4.0493000E-004  5.4216400E-005
 -1.6337100E-004 -3.4187900E-004  5.4885400E-005
 -1.4474000E-004 -2.8589000E-004  5.5514400E-005
 -1.2729000E-004 -2.3601000E-004  5.6087800E-005
 -1.1105900E-004 -1.9234800E-004  5.6593200E-005
 -9.5973300E-005 -1.5410500E-004  5.7015700E-005
 -8.2098600E-005 -1.2113900E-004  5.7342300E-005
 -6.9335300E-005 -9.2961400E-005  5.7559100E-005
 -5.7741500E-005 -6.9085100E-005  5.7652500E-005
 -4.7225100E-005 -4.9378900E-005  5.7609900E-005
 -3.7804800E-005 -3.3049900E-005  5.7417100E-005
 -2.9427900E-005 -2.0235400E-005  5.7063200E-005
 -2.2045000E-005 -1.0002100E-005  5.6533400E-005
 -1.5664900E-005 -2.5491000E-006  5.5817900E-005
 -1.0161600E-005  2.9397200E-006  5.4902800E-005
 -5.5973500E-006  6.4533200E-006  5.3778100E-005
 -1.7916500E-006  8.4550200E-006  5.2431600E-005
  1.1699600E-006  9.2958500E-006  5.0853100E-005
  3.4857600E-006  8.9615600E-006  4.9032300E-005
  5.0866000E-006  8.2115500E-006  4.6958800E-005
  6.1461100E-006  6.5669400E-006  4.4624300E-005
  6.6537900E-006  5.1022600E-006  4.2018800E-005
  6.7168700E-006  3.0234000E-006  3.9136100E-005
  6.4182900E-006  1.5083000E-006  3.5967500E-005
  5.7712800E-006 -3.2249000E-007  3.2508600E-005
  4.9686300E-006 -1.4183800E-006  2.8754100E-005
  3.9111300E-006 -2.5638200E-006  2.4700700E-005
  2.9200600E-006 -2.9380600E-006  2.0347900E-005
  1.7281500E-006 -3.2259800E-006  1.5693400E-005
  8.9411800E-007 -2.6404800E-006  1.0744500E-005
 -1.7555000E-007 -2.1696500E-006  5.5001400E-006
  0.0000000E+000  0.0000000E+000  0.0000000E+000
  0.0000000E+000  0.0000000E+000  0.0000000E+000
  0.0000000E+000  0.0000000E+000  0.0000000E+000
  0.0000000E+000  0.0000000E+000  0.0000000E+000
  0.0000000E+000  0.0000000E+000  0.0000000E+000
  0.0000000E+000  0.0000000E+000  0.0000000E+000
  0.0000000E+000  0.0000000E+000  0.0000000E+000
  0.0000000E+000  0.0000000E+000  0.0000000E+000
  0.0000000E+000  0.0000000E+000  0.0000000E+000
  0.0000000E+000  0.0000000E+000  0.0000000E+000
  0.0000000E+000  0.0000000E+000  0.0000000E+000
  0.0000000E+000  0.0000000E+000  0.0000000E+000
  0.0000000E+000  0.0000000E+000  0.0000000E+000
  0.0000000E+000  0.0000000E+000  0.0000000E+000
  0.0000000E+000  0.0000000E+000  0.0000000E+000
  0.0000000E+000  0.0000000E+000  0.0000000E+000
  5.7391400E-007 -1.8837300E-007  5.4576400E-006
  8.4228800E-007 -7.0393200E-007  1.0728500E-005
  8.0660700E-007 -8.3886600E-007  1.5842300E-005
  7.3881400E-007 -6.4947800E-007  2.0825700E-005
  5.9778500E-007 -1.5308200E-009  2.5696300E-005
  5.8965700E-007  9.4615900E-007  3.0470900E-005
  7.0430600E-007  2.4023300E-006  3.5161700E-005
  1.1018500E-006  3.9335900E-006  3.9778500E-005
  1.8032200E-006  5.8932600E-006  4.4330300E-005
  2.9157800E-006  7.6225200E-006  4.8821900E-005
  4.5061900E-006  9.5256500E-006  5.3259500E-005
  6.6209700E-006  1.0872900E-005  5.7645000E-005
  9.3743700E-006  1.1944700E-005  6.1982100E-005
  1.2759900E-005  1.2127500E-005  6.6270800E-005
  1.6920700E-005  1.1417100E-005  7.0512200E-005
  2.1820900E-005  9.4479400E-006  7.4705400E-005
  2.7603100E-005  5.8553000E-006  7.8848700E-005
  3.4230900E-005  5.5486200E-007  8.2940800E-005
  4.1815100E-005 -7.1465400E-006  8.6977900E-005
  5.0346100E-005 -1.7129300E-005  9.0957800E-005
  5.9876200E-005 -3.0272800E-005  9.4875100E-005
  7.0440600E-005 -4.6430200E-005  9.8727000E-005
  8.2023800E-005 -6.6448000E-005  1.0250700E-004
  9.4697600E-005 -9.0361300E-005  1.0621100E-004
  1.0839600E-004 -1.1878400E-004  1.0983200E-004
  1.2320100E-004 -1.5207700E-004  1.1336500E-004
  1.3902500E-004 -1.9051800E-004  1.1680200E-004
  1.5592400E-004 -2.3481900E-004  1.2013700E-004
  1.7382400E-004 -2.8493800E-004  1.2336300E-004
  1.9272000E-004 -3.4184600E-004  1.2647100E-004
  2.1257900E-004 -4.0532500E-004  1.2945600E-004
  2.3331900E-004 -4.7638300E-004  1.3230800E-004
  2.5494700E-004 -5.5485900E-004  1.3502100E-004
  2.7731500E-004 -6.4154800E-004  1.3758600E-004
  3.0045100E-004 -7.3655200E-004  1.3999500E-004
  3.2417100E-004 -8.4027200E-004  1.4224100E-004
  3.4848400E-004 -9.5317400E-004  1.4431700E-004
  3.7321500E-004 -1.0752200E-003  1.4621600E-004
  3.9831700E-004 -1.2071900E-003  1.4792900E-004
  4.2365600E-004 -1.3486900E-003  1.4945200E-004
  4.4910600E-004 -1.5006600E-003  1.5077800E-004
  4.7459500E-004 -1.6625800E-003  1.5190300E-004
  4.9991900E-004 -1.8352400E-003  1.5282000E-004
  5.2505000E-004 -2.0182500E-003  1.5352800E-004
  5.4974800E-004 -2.2120400E-003  1.5402400E-004
  5.7398800E-004 -2.4165300E-003  1.5430500E-004
  5.9754300E-004 -2.6316200E-003  1.5437200E-004
  6.2035400E-004 -2.8576200E-003  1.5422400E-004
  6.4225000E-004 -3.0939500E-003  1.5386500E-004
  6.6311200E-004 -3.3411400E-003  1.5329500E-004
  6.8285000E-004 -3.5983400E-003  1.5252200E-004
  7.0128400E-004 -3.8660800E-003  1.5154900E-004
  7.1839800E-004 -4.1434800E-003  1.5038600E-004
  7.3398500E-004 -4.4308200E-003  1.4903900E-004
  7.4806800E-004 -4.7274500E-003  1.4751900E-004
  7.6046200E-004 -5.0332000E-003  1.4583800E-004
  7.7118800E-004 -5.3477600E-003  1.4400600E-004
  7.8012600E-004 -5.6705400E-003  1.4203900E-004
  7.8726800E-004 -6.0014800E-003  1.3994900E-004
  7.9257800E-004 -6.3397100E-003  1.3775200E-004
  7.9601400E-004 -6.6853000E-003  1.3546300E-004
  7.9762400E-004 -7.0372800E-003  1.3309900E-004
  7.9734600E-004 -7.3956500E-003  1.3067600E-004
  7.9528100E-004 -7.7595700E-003  1.2821000E-004
  7.9138400E-004 -8.1288500E-003  1.2571800E-004
  7.8577400E-004 -8.5028400E-003  1.2321600E-004
  7.7844700E-004 -8.8811400E-003  1.2072000E-004
  7.6951200E-004 -9.2633600E-003  1.1824500E-004
  7.5902400E-004 -9.6489100E-003  1.1580600E-004
  7.4707000E-004 -1.0037600E-002  1.1341500E-004
  7.3375600E-004 -1.0428700E-002  1.1108700E-004
  7.1914900E-004 -1.0822200E-002  1.0883000E-004
  7.0339100E-004 -1.1217400E-002  1.0665800E-004
  6.8654200E-004 -1.1614300E-002  1.0457600E-004
  6.6875300E-004 -1.2012300E-002  1.0259400E-004
  6.5009100E-004 -1.2411400E-002  1.0071600E-004
  6.3069400E-004 -1.2811100E-002  9.8947700E-005
  6.1064600E-004 -1.3211300E-002  9.7291000E-005
  5.9005500E-004 -1.3611900E-002  9.5747100E-005
  5.6902300E-004 -1.4012700E-002  9.4316200E-005
  5.4762100E-004 -1.4413500E-002  9.2996300E-005
  5.2596200E-004 -1.4814300E-002  9.1784700E-005
  5.0408400E-004 -1.5215000E-002  9.0677100E-005
  4.8209500E-004 -1.5615500E-002  8.9668600E-005
  4.6001000E-004 -1.6015900E-002  8.8753100E-005
  4.3791600E-004 -1.6416200E-002  8.7923900E-005
  4.1581600E-004 -1.6816300E-002  8.7174200E-005
  3.9376400E-004 -1.7216200E-002  8.6496300E-005
  3.7175900E-004 -1.7616100E-002  8.5883800E-005
  3.4980900E-004 -1.8015900E-002  8.5329300E-005
  3.2792900E-004 -1.8415800E-002  8.4827500E-005
  3.0606500E-004 -1.8815600E-002  8.4373000E-005
  2.8427000E-004 -1.9215500E-002  8.3963000E-005
  2.6240500E-004 -1.9615400E-002  8.3595300E-005
  2.4061800E-004 -2.0015500E-002  8.3271000E-005
  2.1861600E-004 -2.0415400E-002  8.2992300E-005
  1.9680800E-004 -2.0815800E-002  8.2763800E-005
  1.7454400E-004 -2.1215600E-002  8.2591200E-005
  1.5294600E-004 -2.1616200E-002  8.2476700E-005
  4.3978500E-007 -2.1607200E-002  8.2465800E-005
  2.2904700E-005 -2.1207100E-002  8.2578400E-005
  4.4692400E-005 -2.0806900E-002  8.2751600E-005
  6.6800900E-005 -2.0406800E-002  8.2979300E-005
  8.8645500E-005 -2.0006700E-002  8.3257500E-005
  1.1055900E-004 -1.9606700E-002  8.3581200E-005
  1.3238700E-004 -1.9206700E-002  8.3948500E-005
  1.5423300E-004 -1.8806900E-002  8.4358400E-005
  1.7608900E-004 -1.8407000E-002  8.4812800E-005
  1.9797300E-004 -1.8007200E-002  8.5314500E-005
  2.1990700E-004 -1.7607400E-002  8.5868400E-005
  2.4188000E-004 -1.7207500E-002  8.6479900E-005
  2.6389900E-004 -1.6807600E-002  8.7155500E-005
  2.8594500E-004 -1.6407500E-002  8.7902000E-005
  3.0799600E-004 -1.6007200E-002  8.8726200E-005
  3.3002200E-004 -1.5606800E-002  8.9635000E-005
  3.5198100E-004 -1.5206200E-002  9.0634600E-005
  3.7382500E-004 -1.4805500E-002  9.1730800E-005
  3.9549800E-004 -1.4404600E-002  9.2928500E-005
  4.1692600E-004 -1.4003800E-002  9.4231600E-005
  4.3805400E-004 -1.3602900E-002  9.5642800E-005
  4.5877500E-004 -1.3202300E-002  9.7163800E-005
  4.7904000E-004 -1.2801900E-002  9.8794600E-005
  4.9871800E-004 -1.2402100E-002  1.0053400E-004
  5.1776300E-004 -1.2003000E-002  1.0237900E-004
  5.3603100E-004 -1.1604800E-002  1.0432600E-004
  5.5347100E-004 -1.1207800E-002  1.0636900E-004
  5.6995100E-004 -1.0812400E-002  1.0850100E-004
  5.8539900E-004 -1.0418900E-002  1.1071300E-004
  5.9971400E-004 -1.0027500E-002  1.1299500E-004
  6.1279700E-004 -9.6388000E-003  1.1533700E-004
  6.2459300E-004 -9.2530600E-003  1.1772700E-004
  6.3497600E-004 -8.8707800E-003  1.2015000E-004
  6.4393700E-004 -8.4923600E-003  1.2259300E-004
  6.5133900E-004 -8.1182500E-003  1.2504100E-004
  6.5720500E-004 -7.7489700E-003  1.2747900E-004
  6.6141500E-004 -7.3848800E-003  1.2989100E-004
  6.6399700E-004 -7.0266100E-003  1.3226000E-004
  6.6488400E-004 -6.6744300E-003  1.3457100E-004
  6.6408100E-004 -6.3290300E-003  1.3680900E-004
  6.6160000E-004 -5.9906200E-003  1.3895600E-004
  6.5740800E-004 -5.6598700E-003  1.4099800E-004
  6.5160100E-004 -5.3370200E-003  1.4292000E-004
  6.4411700E-004 -5.0226000E-003  1.4470800E-004
  6.3511600E-004 -4.7169300E-003  1.4635000E-004
  6.2453400E-004 -4.4203500E-003  1.4783400E-004
  6.1255500E-004 -4.1332800E-003  1.4914800E-004
  5.9915700E-004 -3.8558200E-003  1.5028200E-004
  5.8450000E-004 -3.5884900E-003  1.5123000E-004
  5.6864000E-004 -3.3312000E-003  1.5198300E-004
  5.5167200E-004 -3.0844600E-003  1.5253500E-004
  5.3375500E-004 -2.8481000E-003  1.5288300E-004
  5.1490700E-004 -2.6225100E-003  1.5302300E-004
  4.9536900E-004 -2.4075300E-003  1.5295400E-004
  4.7511200E-004 -2.2033200E-003  1.5267400E-004
  4.5440800E-004 -2.0098300E-003  1.5218400E-004
  4.3322800E-004 -1.8269500E-003  1.5148600E-004
  4.1182000E-004 -1.6547500E-003  1.5058200E-004
  3.9019900E-004 -1.4928700E-003  1.4947600E-004
  3.6853800E-004 -1.3414400E-003  1.4817100E-004
  3.4693200E-004 -1.1999600E-003  1.4667400E-004
  3.2545200E-004 -1.0685200E-003  1.4498900E-004
  3.0427400E-004 -9.4657100E-004  1.4312300E-004
  2.8338000E-004 -8.3409100E-004  1.4108200E-004
  2.6298900E-004 -7.3061000E-004  1.3887400E-004
  2.4304200E-004 -6.3587900E-004  1.3650400E-004
  2.2374700E-004 -5.4958000E-004  1.3398200E-004
  2.0505100E-004 -4.7124100E-004  1.3131300E-004
  1.8710500E-004 -4.0068000E-004  1.2850600E-004
  1.6990200E-004 -3.3726400E-004  1.2556900E-004
  1.5350300E-004 -2.8087700E-004  1.2250800E-004
  1.3796900E-004 -2.3083200E-004  1.1933100E-004
  1.2326300E-004 -1.8698300E-004  1.1604500E-004
  1.0950400E-004 -1.4870500E-004  1.1265800E-004
  9.6588300E-005 -1.1573600E-004  1.0917500E-004
  8.4650900E-005 -8.7594600E-005  1.0560300E-004
  7.3567300E-005 -6.3864200E-005  1.0194700E-004
  6.3445600E-005 -4.4231300E-005  9.8214900E-005
  5.4183100E-005 -2.8149000E-005  9.4410100E-005
  4.5824700E-005 -1.5434600E-005  9.0538000E-005
  3.8321900E-005 -5.4876600E-006  8.6602400E-005
  3.1637000E-005  1.8241000E-006  8.2607500E-005
  2.5782500E-005  7.0513300E-006  7.8556100E-005
  2.0650200E-005  1.0365100E-005  7.4451100E-005
  1.6291000E-005  1.2175100E-005  7.0294200E-005
  1.2559100E-005  1.2752500E-005  6.6086800E-005
  9.5087900E-006  1.2316700E-005  6.1829300E-005
  6.9953600E-006  1.1250600E-005  5.7521100E-005
  5.0415800E-006  9.5889400E-006  5.3161300E-005
  3.5365900E-006  7.7864000E-006  4.8747200E-005
  2.4475900E-006  5.7449600E-006  4.4275500E-005
  1.7124000E-006  3.9158300E-006  3.9741400E-005
  1.2437400E-006  2.1431300E-006  3.5138700E-005
  1.0110600E-006  7.9479800E-007  3.0459300E-005
  9.0463000E-007 -2.8194100E-007  2.5693100E-005
  8.7857000E-007 -8.5825600E-007  2.0827800E-005
  8.5594300E-007 -1.0657800E-006  1.5847200E-005
  7.1779200E-007 -8.6271600E-007  1.0733000E-005
  4.6125700E-007 -2.9521700E-007  5.4596600E-006
 -1.5112100E-004 -2.1598500E-002  8.2431600E-005
 -1.2933600E-004 -2.1198400E-002  8.2542800E-005
 -1.0705800E-004 -2.0798200E-002  8.2715600E-005
 -8.5233000E-005 -2.0398100E-002  8.2942000E-005
 -6.3200200E-005 -1.9998000E-002  8.3218200E-005
 -4.1372400E-005 -1.9598000E-002  8.3540400E-005
 -1.9478600E-005 -1.9198000E-002  8.3906400E-005
  2.3564300E-006 -1.8798100E-002  8.4315800E-005
  2.4223300E-005 -1.8398300E-002  8.4769500E-005
  4.6104500E-005 -1.7998500E-002  8.5270300E-005
  6.8020400E-005 -1.7598700E-002  8.5822000E-005
  8.9972300E-005 -1.7198800E-002  8.6429600E-005
  1.1195900E-004 -1.6798900E-002  8.7098600E-005
  1.3396500E-004 -1.6398800E-002  8.7834900E-005
  1.5598200E-004 -1.5998500E-002  8.8644500E-005
  1.7797000E-004 -1.5598100E-002  8.9533300E-005
  1.9991100E-004 -1.5197500E-002  9.0506900E-005
  2.2175000E-004 -1.4796700E-002  9.1570400E-005
  2.4344500E-004 -1.4395800E-002  9.2727900E-005
  2.6494200E-004 -1.3994900E-002  9.3982800E-005
  2.8616400E-004 -1.3594000E-002  9.5337600E-005
  3.0706900E-004 -1.3193300E-002  9.6793200E-005
  3.2754400E-004 -1.2792900E-002  9.8349800E-005
  3.4756100E-004 -1.2392900E-002  1.0000600E-004
  3.6698100E-004 -1.1993700E-002  1.0175900E-004
  3.8577900E-004 -1.1595400E-002  1.0360500E-004
  4.0381200E-004 -1.1198400E-002  1.0553800E-004
  4.2104400E-004 -1.0802900E-002  1.0755300E-004
  4.3735200E-004 -1.0409200E-002  1.0964000E-004
  4.5267000E-004 -1.0017800E-002  1.1179100E-004
  4.6692100E-004 -9.6289900E-003  1.1399500E-004
  4.7999900E-004 -9.2431900E-003  1.1624100E-004
  4.9188400E-004 -8.8608300E-003  1.1851700E-004
  5.0243300E-004 -8.4823500E-003  1.2081000E-004
  5.1167900E-004 -8.1082200E-003  1.2310600E-004
  5.1946600E-004 -7.7388700E-003  1.2539000E-004
  5.2585200E-004 -7.3748100E-003  1.2764800E-004
  5.3071100E-004 -7.0164800E-003  1.2986500E-004
  5.3408500E-004 -6.6643800E-003  1.3202700E-004
  5.3592100E-004 -6.3189400E-003  1.3411700E-004
  5.3621200E-004 -5.9806400E-003  1.3612300E-004
  5.3500800E-004 -5.6499100E-003  1.3802900E-004
  5.3223900E-004 -5.3271800E-003  1.3982200E-004
  5.2805200E-004 -5.0128500E-003  1.4148900E-004
  5.2233700E-004 -4.7072900E-003  1.4301800E-004
  5.1530300E-004 -4.4108800E-003  1.4439800E-004
  5.0684400E-004 -4.1238900E-003  1.4561900E-004
  4.9717100E-004 -3.8466800E-003  1.4667200E-004
  4.8624500E-004 -3.5794400E-003  1.4754900E-004
  4.7421500E-004 -3.3224400E-003  1.4824300E-004
  4.6115500E-004 -3.0758100E-003  1.4874900E-004
  4.4711300E-004 -2.8397500E-003  1.4906300E-004
  4.3228800E-004 -2.6143100E-003  1.4918200E-004
  4.1663300E-004 -2.3996000E-003  1.4910300E-004
  4.0043300E-004 -2.1956200E-003  1.4882700E-004
  3.8359500E-004 -2.0023600E-003  1.4835300E-004
  3.6642200E-004 -1.8197800E-003  1.4768300E-004
  3.4884000E-004 -1.6477600E-003  1.4681900E-004
  3.3109500E-004 -1.4862200E-003  1.4576400E-004
  3.1319600E-004 -1.3349700E-003  1.4452100E-004
  2.9527300E-004 -1.1938400E-003  1.4309600E-004
  2.7744800E-004 -1.0625700E-003  1.4149300E-004
  2.5972700E-004 -9.4096400E-004  1.3971800E-004
  2.4232400E-004 -8.2870100E-004  1.3777600E-004
  2.2515500E-004 -7.2550600E-004  1.3567500E-004
  2.0847100E-004 -6.3104500E-004  1.3341900E-004
  1.9216100E-004 -5.4497700E-004  1.3101600E-004
  1.7644600E-004 -4.6695300E-004  1.2847300E-004
  1.6125000E-004 -3.9657800E-004  1.2579600E-004
  1.4670500E-004 -3.3349700E-004  1.2299200E-004
  1.3281900E-004 -2.7728000E-004  1.2006800E-004
  1.1960200E-004 -2.2756000E-004  1.1702900E-004
  1.0715500E-004 -1.8389200E-004  1.1388400E-004
  9.5382700E-005 -1.4589900E-004  1.1063700E-004
  8.4444800E-005 -1.1314200E-004  1.0729400E-004
  7.4189100E-005 -8.5230000E-005  1.0386200E-004
  6.4778400E-005 -6.1745000E-005  1.0034500E-004
  5.6064100E-005 -4.2288500E-005  9.6748000E-005