# vtk DataFile Version 3.0
MMH: CalculiX output 'object.frd' file to 'vtk' format
ASCII
DATASET UNSTRUCTURED_GRID
POINTS 3232 double
 6.00000000E-001 2.10000000E-001 0.00000000E+000
 6.00000000E-001 2.08667000E-001 0.00000000E+000
 6.00000000E-001 2.07333000E-001 0.00000000E+000
 6.00000000E-001 2.06000000E-001 0.00000000E+000
 6.00000000E-001 2.04667000E-001 0.00000000E+000
 6.00000000E-001 2.03333000E-001 0.00000000E+000
 6.00000000E-001 2.02000000E-001 0.00000000E+000
 6.00000000E-001 2.00667000E-001 0.00000000E+000
 6.00000000E-001 1.99333000E-001 0.00000000E+000
 6.00000000E-001 1.98000000E-001 0.00000000E+000
 6.00000000E-001 1.96667000E-001 0.00000000E+000
 6.00000000E-001 1.95333000E-001 0.00000000E+000
 6.00000000E-001 1.94000000E-001 0.00000000E+000
 6.00000000E-001 1.92667000E-001 0.00000000E+000
 6.00000000E-001 1.91333000E-001 0.00000000E+000
 6.00000000E-001 1.90000000E-001 0.00000000E+000
 5.96490000E-001 1.90000000E-001 0.00000000E+000
 5.92980000E-001 1.90000000E-001 0.00000000E+000
 5.89470000E-001 1.90000000E-001 0.00000000E+000
 5.85960000E-001 1.90000000E-001 0.00000000E+000
 5.82449000E-001 1.90000000E-001 0.00000000E+000
 5.78939000E-001 1.90000000E-001 0.00000000E+000
 5.75429000E-001 1.90000000E-001 0.00000000E+000
 5.71919000E-001 1.90000000E-001 0.00000000E+000
 5.68409000E-001 1.90000000E-001 0.00000000E+000
 5.64899000E-001 1.90000000E-001 0.00000000E+000
 5.61389000E-001 1.90000000E-001 0.00000000E+000
 5.57879000E-001 1.90000000E-001 0.00000000E+000
 5.54369000E-001 1.90000000E-001 0.00000000E+000
 5.50859000E-001 1.90000000E-001 0.00000000E+000
 5.47348000E-001 1.90000000E-001 0.00000000E+000
 5.43838000E-001 1.90000000E-001 0.00000000E+000
 5.40328000E-001 1.90000000E-001 0.00000000E+000
 5.36818000E-001 1.90000000E-001 0.00000000E+000
 5.33308000E-001 1.90000000E-001 0.00000000E+000
 5.29798000E-001 1.90000000E-001 0.00000000E+000
 5.26288000E-001 1.90000000E-001 0.00000000E+000
 5.22778000E-001 1.90000000E-001 0.00000000E+000
 5.19268000E-001 1.90000000E-001 0.00000000E+000
 5.15758000E-001 1.90000000E-001 0.00000000E+000
 5.12247000E-001 1.90000000E-001 0.00000000E+000
 5.08737000E-001 1.90000000E-001 0.00000000E+000
 5.05227000E-001 1.90000000E-001 0.00000000E+000
 5.01717000E-001 1.90000000E-001 0.00000000E+000
 4.98207000E-001 1.90000000E-001 0.00000000E+000
 4.94697000E-001 1.90000000E-001 0.00000000E+000
 4.91187000E-001 1.90000000E-001 0.00000000E+000
 4.87677000E-001 1.90000000E-001 0.00000000E+000
 4.84167000E-001 1.90000000E-001 0.00000000E+000
 4.80657000E-001 1.90000000E-001 0.00000000E+000
 4.77146000E-001 1.90000000E-001 0.00000000E+000
 4.73636000E-001 1.90000000E-001 0.00000000E+000
 4.70126000E-001 1.90000000E-001 0.00000000E+000
 4.66616000E-001 1.90000000E-001 0.00000000E+000
 4.63106000E-001 1.90000000E-001 0.00000000E+000
 4.59596000E-001 1.90000000E-001 0.00000000E+000
 4.56086000E-001 1.90000000E-001 0.00000000E+000
 4.52576000E-001 1.90000000E-001 0.00000000E+000
 4.49066000E-001 1.90000000E-001 0.00000000E+000
 4.45556000E-001 1.90000000E-001 0.00000000E+000
 4.42045000E-001 1.90000000E-001 0.00000000E+000
 4.38535000E-001 1.90000000E-001 0.00000000E+000
 4.35025000E-001 1.90000000E-001 0.00000000E+000
 4.31515000E-001 1.90000000E-001 0.00000000E+000
 4.28005000E-001 1.90000000E-001 0.00000000E+000
 4.24495000E-001 1.90000000E-001 0.00000000E+000
 4.20985000E-001 1.90000000E-001 0.00000000E+000
 4.17475000E-001 1.90000000E-001 0.00000000E+000
 4.13965000E-001 1.90000000E-001 0.00000000E+000
 4.10455000E-001 1.90000000E-001 0.00000000E+000
 4.06944000E-001 1.90000000E-001 0.00000000E+000
 4.03434000E-001 1.90000000E-001 0.00000000E+000
 3.99924000E-001 1.90000000E-001 0.00000000E+000
 3.96414000E-001 1.90000000E-001 0.00000000E+000
 3.92904000E-001 1.90000000E-001 0.00000000E+000
 3.89394000E-001 1.90000000E-001 0.00000000E+000
 3.85884000E-001 1.90000000E-001 0.00000000E+000
 3.82374000E-001 1.90000000E-001 0.00000000E+000
 3.78864000E-001 1.90000000E-001 0.00000000E+000
 3.75353000E-001 1.90000000E-001 0.00000000E+000
 3.71843000E-001 1.90000000E-001 0.00000000E+000
 3.68333000E-001 1.90000000E-001 0.00000000E+000
 3.64823000E-001 1.90000000E-001 0.00000000E+000
 3.61313000E-001 1.90000000E-001 0.00000000E+000
 3.57803000E-001 1.90000000E-001 0.00000000E+000
 3.54293000E-001 1.90000000E-001 0.00000000E+000
 3.50783000E-001 1.90000000E-001 0.00000000E+000
 3.47273000E-001 1.90000000E-001 0.00000000E+000
 3.43763000E-001 1.90000000E-001 0.00000000E+000
 3.40252000E-001 1.90000000E-001 0.00000000E+000
 3.36742000E-001 1.90000000E-001 0.00000000E+000
 3.33232000E-001 1.90000000E-001 0.00000000E+000
 3.29722000E-001 1.90000000E-001 0.00000000E+000
 3.26212000E-001 1.90000000E-001 0.00000000E+000
 3.22702000E-001 1.90000000E-001 0.00000000E+000
 3.19192000E-001 1.90000000E-001 0.00000000E+000
 3.15682000E-001 1.90000000E-001 0.00000000E+000
 3.12172000E-001 1.90000000E-001 0.00000000E+000
 3.08661000E-001 1.90000000E-001 0.00000000E+000
 3.05151000E-001 1.90000000E-001 0.00000000E+000
 3.01641000E-001 1.90000000E-001 0.00000000E+000
 2.98131000E-001 1.90000000E-001 0.00000000E+000
 2.94621000E-001 1.90000000E-001 0.00000000E+000
 2.91111000E-001 1.90000000E-001 0.00000000E+000
 2.87601000E-001 1.90000000E-001 0.00000000E+000
 2.84091000E-001 1.90000000E-001 0.00000000E+000
 2.80581000E-001 1.90000000E-001 0.00000000E+000
 2.77071000E-001 1.90000000E-001 0.00000000E+000
 2.73560000E-001 1.90000000E-001 0.00000000E+000
 2.70050000E-001 1.90000000E-001 0.00000000E+000
 2.66540000E-001 1.90000000E-001 0.00000000E+000
 2.63030000E-001 1.90000000E-001 0.00000000E+000
 2.59520000E-001 1.90000000E-001 0.00000000E+000
 2.56010000E-001 1.90000000E-001 0.00000000E+000
 2.52500000E-001 1.90000000E-001 0.00000000E+000
 2.48990000E-001 1.90000000E-001 0.00000000E+000
 2.48990000E-001 1.91333000E-001 0.00000000E+000
 2.48990000E-001 1.92667000E-001 0.00000000E+000
 2.48990000E-001 1.94000000E-001 0.00000000E+000
 2.48990000E-001 1.95333000E-001 0.00000000E+000
 2.48990000E-001 1.96667000E-001 0.00000000E+000
 2.48990000E-001 1.98000000E-001 0.00000000E+000
 2.48990000E-001 1.99333000E-001 0.00000000E+000
 2.48990000E-001 2.00667000E-001 0.00000000E+000
 2.48990000E-001 2.02000000E-001 0.00000000E+000
 2.48990000E-001 2.03333000E-001 0.00000000E+000
 2.48990000E-001 2.04667000E-001 0.00000000E+000
 2.48990000E-001 2.06000000E-001 0.00000000E+000
 2.48990000E-001 2.07333000E-001 0.00000000E+000
 2.48990000E-001 2.08667000E-001 0.00000000E+000
 2.48990000E-001 2.10000000E-001 0.00000000E+000
 2.52500000E-001 2.10000000E-001 0.00000000E+000
 2.56010000E-001 2.10000000E-001 0.00000000E+000
 2.59520000E-001 2.10000000E-001 0.00000000E+000
 2.63030000E-001 2.10000000E-001 0.00000000E+000
 2.66540000E-001 2.10000000E-001 0.00000000E+000
 2.70050000E-001 2.10000000E-001 0.00000000E+000
 2.73560000E-001 2.10000000E-001 0.00000000E+000
 2.77071000E-001 2.10000000E-001 0.00000000E+000
 2.80581000E-001 2.10000000E-001 0.00000000E+000
 2.84091000E-001 2.10000000E-001 0.00000000E+000
 2.87601000E-001 2.10000000E-001 0.00000000E+000
 2.91111000E-001 2.10000000E-001 0.00000000E+000
 2.94621000E-001 2.10000000E-001 0.00000000E+000
 2.98131000E-001 2.10000000E-001 0.00000000E+000
 3.01641000E-001 2.10000000E-001 0.00000000E+000
 3.05151000E-001 2.10000000E-001 0.00000000E+000
 3.08661000E-001 2.10000000E-001 0.00000000E+000
 3.12172000E-001 2.10000000E-001 0.00000000E+000
 3.15682000E-001 2.10000000E-001 0.00000000E+000
 3.19192000E-001 2.10000000E-001 0.00000000E+000
 3.22702000E-001 2.10000000E-001 0.00000000E+000
 3.26212000E-001 2.10000000E-001 0.00000000E+000
 3.29722000E-001 2.10000000E-001 0.00000000E+000
 3.33232000E-001 2.10000000E-001 0.00000000E+000
 3.36742000E-001 2.10000000E-001 0.00000000E+000
 3.40252000E-001 2.10000000E-001 0.00000000E+000
 3.43763000E-001 2.10000000E-001 0.00000000E+000
 3.47273000E-001 2.10000000E-001 0.00000000E+000
 3.50783000E-001 2.10000000E-001 0.00000000E+000
 3.54293000E-001 2.10000000E-001 0.00000000E+000
 3.57803000E-001 2.10000000E-001 0.00000000E+000
 3.61313000E-001 2.10000000E-001 0.00000000E+000
 3.64823000E-001 2.10000000E-001 0.00000000E+000
 3.68333000E-001 2.10000000E-001 0.00000000E+000
 3.71843000E-001 2.10000000E-001 0.00000000E+000
 3.75353000E-001 2.10000000E-001 0.00000000E+000
 3.78864000E-001 2.10000000E-001 0.00000000E+000
 3.82374000E-001 2.10000000E-001 0.00000000E+000
 3.85884000E-001 2.10000000E-001 0.00000000E+000
 3.89394000E-001 2.10000000E-001 0.00000000E+000
 3.92904000E-001 2.10000000E-001 0.00000000E+000
 3.96414000E-001 2.10000000E-001 0.00000000E+000
 3.99924000E-001 2.10000000E-001 0.00000000E+000
 4.03434000E-001 2.10000000E-001 0.00000000E+000
 4.06944000E-001 2.10000000E-001 0.00000000E+000
 4.10455000E-001 2.10000000E-001 0.00000000E+000
 4.13965000E-001 2.10000000E-001 0.00000000E+000
 4.17475000E-001 2.10000000E-001 0.00000000E+000
 4.20985000E-001 2.10000000E-001 0.00000000E+000
 4.24495000E-001 2.10000000E-001 0.00000000E+000
 4.28005000E-001 2.10000000E-001 0.00000000E+000
 4.31515000E-001 2.10000000E-001 0.00000000E+000
 4.35025000E-001 2.10000000E-001 0.00000000E+000
 4.38535000E-001 2.10000000E-001 0.00000000E+000
 4.42045000E-001 2.10000000E-001 0.00000000E+000
 4.45556000E-001 2.10000000E-001 0.00000000E+000
 4.49066000E-001 2.10000000E-001 0.00000000E+000
 4.52576000E-001 2.10000000E-001 0.00000000E+000
 4.56086000E-001 2.10000000E-001 0.00000000E+000
 4.59596000E-001 2.10000000E-001 0.00000000E+000
 4.63106000E-001 2.10000000E-001 0.00000000E+000
 4.66616000E-001 2.10000000E-001 0.00000000E+000
 4.70126000E-001 2.10000000E-001 0.00000000E+000
 4.73636000E-001 2.10000000E-001 0.00000000E+000
 4.77146000E-001 2.10000000E-001 0.00000000E+000
 4.80657000E-001 2.10000000E-001 0.00000000E+000
 4.84167000E-001 2.10000000E-001 0.00000000E+000
 4.87677000E-001 2.10000000E-001 0.00000000E+000
 4.91187000E-001 2.10000000E-001 0.00000000E+000
 4.94697000E-001 2.10000000E-001 0.00000000E+000
[...]
POINT_DATA 3232
VECTORS DISP double
 -1.2008500E-003 -6.2295000E-004  8.0609800E-005
 -1.0954600E-003 -6.1873800E-004  8.0691700E-005
 -9.9035400E-004 -6.1463900E-004  8.0928000E-005
 -8.8509000E-004 -6.1050700E-004  8.1303800E-005
 -7.7995700E-004 -6.0638600E-004  8.1802800E-005
 -6.7477800E-004 -6.0225000E-004  8.2404000E-005
 -5.6958900E-004 -5.9808900E-004  8.3082800E-005
 -4.6447700E-004 -5.9393500E-004  8.3811000E-005
 -3.5926600E-004 -5.8973100E-004  8.4560300E-005
 -2.5412800E-004 -5.8554600E-004  8.5301700E-005
 -1.4882700E-004 -5.8130800E-004  8.6004300E-005
 -4.3766500E-005 -5.7712400E-004  8.6643100E-005
  6.1909200E-005 -5.7282600E-004  8.7188900E-005
  1.6669200E-004 -5.6880300E-004  8.7624200E-005
  2.7352300E-004 -5.6425600E-004  8.7908500E-005
  3.7681700E-004 -5.6222000E-004  8.8002300E-005
  3.8735900E-004 -8.3499900E-004  8.8034800E-005
  3.9562400E-004 -1.1140400E-003  8.8214800E-005
  4.0523600E-004 -1.3884900E-003  8.8590400E-005
  4.1394400E-004 -1.6665600E-003  8.9174800E-005
  4.2282800E-004 -1.9419600E-003  8.9989300E-005
  4.3105400E-004 -2.2195200E-003  9.1035400E-005
  4.3890700E-004 -2.4951400E-003  9.2321500E-005
  4.4599900E-004 -2.7718800E-003  9.3843100E-005
  4.5233700E-004 -3.0467800E-003  9.5597800E-005
  4.5767900E-004 -3.3218500E-003  9.7575100E-005
  4.6194500E-004 -3.5947800E-003  9.9764200E-005
  4.6494000E-004 -3.8668700E-003  1.0214800E-004
  4.6657700E-004 -4.1362300E-003  1.0471000E-004
  4.6668200E-004 -4.4036200E-003  1.0742700E-004
  4.6518300E-004 -4.6674900E-003  1.1027900E-004
  4.6193400E-004 -4.9281700E-003  1.1323900E-004
  4.5688600E-004 -5.1843400E-003  1.1628200E-004
  4.4992800E-004 -5.4360800E-003  1.1938300E-004
  4.4103800E-004 -5.6821800E-003  1.2251400E-004
  4.3014200E-004 -5.9226000E-003  1.2565000E-004
  4.1725900E-004 -6.1562100E-003  1.2876500E-004
  4.0233700E-004 -6.3828700E-003  1.3183300E-004
  3.8545100E-004 -6.6016000E-003  1.3483100E-004
  3.6656500E-004 -6.8121300E-003  1.3773700E-004
  3.4581100E-004 -7.0137000E-003  1.4053000E-004
  3.2316900E-004 -7.2058700E-003  1.4319200E-004
  2.9881500E-004 -7.3881800E-003  1.4570600E-004
  2.7275700E-004 -7.5600200E-003  1.4805800E-004
  2.4518900E-004 -7.7212300E-003  1.5023600E-004
  2.1616600E-004 -7.8710800E-003  1.5223000E-004
  1.8586900E-004 -8.0096400E-003  1.5403200E-004
  1.5441400E-004 -8.1361900E-003  1.5563600E-004
  1.2194800E-004 -8.2508800E-003  1.5703900E-004
  8.8646400E-005 -8.3532000E-003  1.5823900E-004
  5.4621300E-005 -8.4431700E-003  1.5923600E-004
  2.0082000E-005 -8.5206500E-003  1.6003200E-004
 -1.4874900E-005 -8.5854600E-003  1.6062900E-004
 -5.0041300E-005 -8.6378300E-003  1.6103200E-004
 -8.5312500E-005 -8.6774100E-003  1.6124600E-004
 -1.2051600E-004 -8.7047100E-003  1.6127600E-004
 -1.5551800E-004 -8.7193300E-003  1.6113000E-004
 -1.9020500E-004 -8.7218800E-003  1.6081300E-004
 -2.2441100E-004 -8.7121000E-003  1.6033400E-004
 -2.5807600E-004 -8.6905000E-003  1.5969900E-004
 -2.9102100E-004 -8.6571100E-003  1.5891600E-004
 -3.2322200E-004 -8.6122200E-003  1.5799200E-004
 -3.5451100E-004 -8.5561800E-003  1.5693400E-004
 -3.8487200E-004 -8.4890500E-003  1.5574700E-004
 -4.1417600E-004 -8.4114800E-003  1.5443800E-004
 -4.4239100E-004 -8.3233400E-003  1.5301200E-004
 -4.6944700E-004 -8.2254500E-003  1.5147500E-004
 -4.9528100E-004 -8.1176700E-003  1.4982800E-004
 -5.1988000E-004 -8.0007800E-003  1.4807800E-004
 -5.4316000E-004 -7.8747800E-003  1.4622400E-004
 -5.6514200E-004 -7.7402800E-003  1.4427100E-004
 -5.8574800E-004 -7.5975500E-003  1.4221800E-004
 -6.0499900E-004 -7.4469300E-003  1.4006700E-004
 -6.2285200E-004 -7.2889700E-003  1.3781700E-004
 -6.3929700E-004 -7.1237600E-003  1.3546700E-004
 -6.5434600E-004 -6.9520700E-003  1.3301600E-004
 -6.6793800E-004 -6.7738900E-003  1.3046100E-004
 -6.8015300E-004 -6.5899900E-003  1.2780100E-004
 -6.9087300E-004 -6.4004700E-003  1.2503100E-004
 -7.0023200E-004 -6.2059100E-003  1.2214800E-004
 -7.0807700E-004 -6.0067200E-003  1.1914800E-004
 -7.1456400E-004 -5.8031300E-003  1.1602800E-004
 -7.1953500E-004 -5.5959500E-003  1.1278100E-004
 -7.2314000E-004 -5.3850100E-003  1.0940400E-004
 -7.2524000E-004 -5.1715300E-003  1.0589300E-004
 -7.2595300E-004 -4.9550200E-003  1.0224100E-004
 -7.2517400E-004 -4.7369800E-003  9.8444700E-005
 -7.2299000E-004 -4.5167700E-003  9.4498700E-005
 -7.1931200E-004 -4.2959700E-003  9.0400100E-005
 -7.1422300E-004 -4.0739800E-003  8.6144300E-005
 -7.0761200E-004 -3.8523400E-003  8.1728500E-005
 -6.9960300E-004 -3.6305900E-003  7.7151000E-005
 -6.9001400E-004 -3.4101500E-003  7.2409800E-005
 -6.7905500E-004 -3.1907100E-003  6.7506500E-005
 -6.6643300E-004 -2.9736800E-003  6.2441100E-005
 -6.5247900E-004 -2.7587000E-003  5.7220200E-005
 -6.3675700E-004 -2.5474300E-003  5.1847500E-005
 -6.1973400E-004 -2.3391800E-003  4.6335900E-005
 -6.0083800E-004 -2.1361900E-003  4.0696300E-005
 -5.8064400E-004 -1.9370400E-003  3.4950200E-005
 -5.5848600E-004 -1.7449800E-003  2.9119800E-005
 -5.3498000E-004 -1.5575100E-003  2.3239800E-005
 -5.0945300E-004 -1.3791600E-003  1.7349000E-005
 -4.8245100E-004 -1.2060800E-003  1.1502900E-005
 -4.5343700E-004 -1.0443800E-003  5.7652800E-006
 -4.2268400E-004 -8.8857400E-004  2.2413100E-007
 -3.9006200E-004 -7.4664200E-004 -5.0197400E-006
 -3.5519900E-004 -6.1110600E-004 -9.8262900E-006
 -3.1888400E-004 -4.9230700E-004 -1.4039600E-005
 -2.7935000E-004 -3.8005400E-004 -1.7434600E-005
 -2.3939600E-004 -2.8818300E-004 -1.9772000E-005
 -1.9420900E-004 -2.0204700E-004 -2.0680200E-005
 -1.5133600E-004 -1.4198100E-004 -1.9800300E-005
 -9.9315900E-005 -8.3445100E-005 -1.6496300E-005
 -5.9471100E-005 -6.1530600E-005 -1.0374100E-005
  0.0000000E+000  0.0000000E+000  0.0000000E+000
  0.0000000E+000  0.0000000E+000  0.0000000E+000
  0.0000000E+000  0.0000000E+000  0.0000000E+000
  0.0000000E+000  0.0000000E+000  0.0000000E+000
  0.0000000E+000  0.0000000E+000  0.0000000E+000
  0.0000000E+000  0.0000000E+000  0.0000000E+000
  0.0000000E+000  0.0000000E+000  0.0000000E+000
  0.0000000E+000  0.0000000E+000  0.0000000E+000
  0.0000000E+000  0.0000000E+000  0.0000000E+000
  0.0000000E+000  0.0000000E+000  0.0000000E+000
  0.0000000E+000  0.0000000E+000  0.0000000E+000
  0.0000000E+000  0.0000000E+000  0.0000000E+000
  0.0000000E+000  0.0000000E+000  0.0000000E+000
  0.0000000E+000  0.0000000E+000  0.0000000E+000
  0.0000000E+000  0.0000000E+000  0.0000000E+000
  0.0000000E+000  0.0000000E+000  0.0000000E+000
  5.8082500E-005 -5.9871500E-005  2.0921500E-005
  9.8811300E-005 -8.3139600E-005  3.7188900E-005
  1.4980200E-004 -1.4246500E-004  5.0260400E-005
  1.9204500E-004 -2.0437000E-004  6.0566600E-005
  2.3553900E-004 -2.9188100E-004  6.8747800E-005
  2.7352500E-004 -3.8615400E-004  7.5174100E-005
  3.1016600E-004 -5.0004300E-004  8.0221500E-005
  3.4301800E-004 -6.2161400E-004  8.4134500E-005
  3.7352900E-004 -7.5888300E-004  8.7144700E-005
  4.0109200E-004 -9.0370200E-004  8.9410600E-005
  4.2595400E-004 -1.0612700E-003  9.1080200E-005
  4.4831400E-004 -1.2257100E-003  9.2256400E-005
  4.6792300E-004 -1.4005500E-003  9.3035200E-005
  4.8529800E-004 -1.5812800E-003  9.3483800E-005
  5.0001700E-004 -1.7704900E-003  9.3664000E-005
  5.1269600E-004 -1.9644700E-003  9.3620100E-005
  5.2287600E-004 -2.1652600E-003  9.3391800E-005
  5.3118600E-004 -2.3696500E-003  9.3008300E-005
  5.3717200E-004 -2.5793700E-003  9.2494500E-005
  5.4145000E-004 -2.7915700E-003  9.1870100E-005
  5.4358400E-004 -3.0077000E-003  9.1150200E-005
  5.4416200E-004 -3.2253000E-003  9.0347800E-005
  5.4277900E-004 -3.4454500E-003  8.9472100E-005
  5.3997500E-004 -3.6662000E-003  8.8531400E-005
  5.3539600E-004 -3.8881400E-003  8.7531400E-005
  5.2950900E-004 -4.1098900E-003  8.6476500E-005
  5.2203300E-004 -4.3315600E-003  8.5370900E-005
  5.1334200E-004 -4.5522600E-003  8.4216200E-005
  5.0324400E-004 -4.7717000E-003  8.3015600E-005
  4.9200400E-004 -4.9894100E-003  8.1769100E-005
  4.7952700E-004 -5.2048100E-003  8.0479500E-005
  4.6596900E-004 -5.4176400E-003  7.9145800E-005
  4.5132000E-004 -5.6272900E-003  7.7770600E-005
  4.3565600E-004 -5.8334400E-003  7.6353300E-005
  4.1901000E-004 -6.0356800E-003  7.4895600E-005
  4.0141800E-004 -6.2334500E-003  7.3398300E-005
  3.8292200E-004 -6.4266400E-003  7.1862600E-005
  3.6355600E-004 -6.6144200E-003  7.0290700E-005
  3.4333200E-004 -6.7969400E-003  6.8683800E-005
  3.2231300E-004 -6.9731900E-003  6.7045700E-005
  3.0046500E-004 -7.1434400E-003  6.5378200E-005
  2.7788800E-004 -7.3066800E-003  6.3686400E-005
  2.5450300E-004 -7.4630900E-003  6.1973500E-005
  2.3043900E-004 -7.6118400E-003  6.0245600E-005
  2.0559500E-004 -7.7529100E-003  5.8507900E-005
  1.8009900E-004 -7.8857400E-003  5.6767000E-005
  1.5386100E-004 -8.0100000E-003  5.5030500E-005
  1.2698400E-004 -8.1254700E-003  5.3305700E-005
  9.9411700E-005 -8.2315600E-003  5.1602200E-005
  7.1204100E-005 -8.3282700E-003  4.9928000E-005
  4.2356400E-005 -8.4148900E-003  4.8294300E-005
  1.2880600E-005 -8.4915100E-003  4.6710300E-005
 -1.7179800E-005 -8.5574600E-003  4.5187800E-005
 -4.7845300E-005 -8.6127500E-003  4.3737400E-005
 -7.9041700E-005 -8.6569100E-003  4.2370700E-005
 -1.1079800E-004 -8.6898000E-003  4.1099200E-005
 -1.4303000E-004 -8.7111700E-003  3.9934000E-005
 -1.7575300E-004 -8.7207400E-003  3.8886900E-005
 -2.0888800E-004 -8.7184900E-003  3.7968100E-005
 -2.4242300E-004 -8.7040500E-003  3.7188500E-005
 -2.7629400E-004 -8.6775400E-003  3.6557100E-005
 -3.1045000E-004 -8.6386300E-003  3.6083200E-005
 -3.4484700E-004 -8.5874800E-003  3.5774000E-005
 -3.7939800E-004 -8.5238900E-003  3.5636400E-005
 -4.1406700E-004 -8.4480100E-003  3.5675200E-005
 -4.4874700E-004 -8.3598200E-003  3.5894100E-005
 -4.8339600E-004 -8.2594400E-003  3.6294900E-005
 -5.1790000E-004 -8.1470500E-003  3.6877700E-005
 -5.5220300E-004 -8.0227400E-003  3.7640900E-005
 -5.8619400E-004 -7.8868800E-003  3.8580500E-005
 -6.1979900E-004 -7.7395700E-003  3.9691300E-005
 -6.5292000E-004 -7.5812900E-003  4.0965200E-005
 -6.8546200E-004 -7.4122400E-003  4.2392900E-005
 -7.1734500E-004 -7.2329500E-003  4.3962600E-005
 -7.4846400E-004 -7.0437500E-003  4.5661300E-005
 -7.7875500E-004 -6.8451500E-003  4.7473700E-005
 -8.0811400E-004 -6.6376500E-003  4.9383400E-005
 -8.3648800E-004 -6.4217300E-003  5.1372700E-005
 -8.6379400E-004 -6.1980300E-003  5.3422300E-005
 -8.8998300E-004 -5.9669900E-003  5.5512800E-005
 -9.1500900E-004 -5.7293200E-003  5.7623300E-005
 -9.3882400E-004 -5.4854800E-003  5.9733700E-005
 -9.6142800E-004 -5.2361700E-003  6.1822800E-005
 -9.8277600E-004 -4.9819100E-003  6.3870700E-005
 -1.0029200E-003 -4.7232900E-003  6.5857600E-005
 -1.0218200E-003 -4.4609200E-003  6.7765000E-005
 -1.0395700E-003 -4.1952300E-003  6.9575700E-005
 -1.0561700E-003 -3.9269000E-003  7.1274000E-005
 -1.0717200E-003 -3.6562000E-003  7.2846700E-005
 -1.0862700E-003 -3.3838200E-003  7.4282000E-005
 -1.0999300E-003 -3.1098900E-003  7.5571800E-005
 -1.1127900E-003 -2.8350400E-003  7.6709700E-005
 -1.1249600E-003 -2.5593100E-003  7.7693100E-005
 -1.1365800E-003 -2.2832100E-003  7.8522200E-005
 -1.1477400E-003 -2.0066800E-003  7.9200600E-005
 -1.1586200E-003 -1.7300800E-003  7.9735000E-005
 -1.1692200E-003 -1.4532800E-003  8.0133500E-005
 -1.1798200E-003 -1.1765400E-003  8.0407100E-005
 -1.1901800E-003 -8.9959500E-004  8.0562000E-005
 -1.0851700E-003 -8.9562800E-004  8.0643600E-005
 -1.0745800E-003 -1.1723900E-003  8.0492400E-005
 -1.0641700E-003 -1.4493000E-003  8.0227300E-005
 -1.0535100E-003 -1.7260100E-003  7.9840700E-005
 -1.0427400E-003 -2.0028000E-003  7.9323000E-005
 -1.0316400E-003 -2.2793200E-003  7.8665900E-005
 -1.0201800E-003 -2.5556800E-003  7.7863200E-005
 -1.0082300E-003 -2.8314700E-003  7.6911400E-005
 -9.9569400E-004 -3.1066500E-003  7.5810100E-005
 -9.8248300E-004 -3.3807100E-003  7.4562000E-005
 -9.6850600E-004 -3.6535000E-003  7.3172800E-005
 -9.5369700E-004 -3.9244300E-003  7.1650800E-005
 -9.3799400E-004 -4.1932200E-003  7.0007000E-005
 -9.2134200E-004 -4.4592500E-003  6.8254400E-005
 -9.0371600E-004 -4.7221000E-003  6.6408000E-005
 -8.8507600E-004 -4.9811600E-003  6.4484500E-005
 -8.6543000E-004 -5.2359100E-003  6.2501900E-005
 -8.4476100E-004 -5.4857500E-003  6.0479200E-005
 -8.2309800E-004 -5.7300800E-003  5.8436100E-005
 -8.0045600E-004 -5.9683300E-003  5.6392600E-005
 -7.7687200E-004 -6.1998700E-003  5.4368800E-005
 -7.5239900E-004 -6.4241600E-003  5.2384500E-005
 -7.2707000E-004 -6.6405900E-003  5.0458900E-005
 -7.0097200E-004 -6.8486400E-003  4.8610500E-005
 -6.7413600E-004 -7.0477600E-003  4.6856600E-005
 -6.4667100E-004 -7.2374500E-003  4.5213400E-005
 -6.1861100E-004 -7.4172500E-003  4.3695400E-005
 -5.9006600E-004 -7.5867100E-003  4.2315700E-005
 -5.6108400E-004 -7.7454700E-003  4.1085400E-005
 -5.3176000E-004 -7.8931100E-003  4.0013900E-005
 -5.0216000E-004 -8.0293900E-003  3.9108700E-005
 -4.7235500E-004 -8.1539700E-003  3.8375200E-005
 -4.4243100E-004 -8.2666700E-003  3.7817200E-005
 -4.1242900E-004 -8.3672700E-003  3.7436300E-005
 -3.8244900E-004 -8.4556500E-003  3.7232500E-005
 -3.5250900E-004 -8.5317200E-003  3.7203900E-005
 -3.2271000E-004 -8.5953700E-003  3.7346900E-005
 -2.9306100E-004 -8.6466600E-003  3.7656800E-005
 -2.6364500E-004 -8.6855200E-003  3.8127100E-005
 -2.3448100E-004 -8.7121100E-003  3.8750500E-005
 -2.0561600E-004 -8.7264100E-003  3.9518200E-005
 -1.7709500E-004 -8.7286600E-003  4.0421000E-005
 -1.4892000E-004 -8.7189100E-003  4.1448700E-005
 -1.2116500E-004 -8.6974200E-003  4.2590800E-005
 -9.3793500E-005 -8.6643600E-003  4.3836200E-005
 -6.6894400E-005 -8.6199600E-003  4.5173800E-005
 -4.0417300E-005 -8.5645200E-003  4.6592400E-005
 -1.4442100E-005 -8.4982000E-003  4.8080800E-005
  1.1068400E-005 -8.4214500E-003  4.9628000E-005
  3.6068600E-005 -8.3343900E-003  5.1223400E-005
  6.0555600E-005 -8.2375100E-003  5.2856900E-005
  8.4535600E-005 -8.1309800E-003  5.4518600E-005
  1.0795500E-004 -8.0152600E-003  5.6199600E-005
  1.3086800E-004 -7.8906100E-003  5.7891200E-005
  1.5318500E-004 -7.7574200E-003  5.9585700E-005
  1.7497800E-004 -7.6160700E-003  6.1276000E-005
  1.9615300E-004 -7.4668200E-003  6.2955400E-005
  2.1676600E-004 -7.3102200E-003  6.4618600E-005
  2.3675300E-004 -7.1463900E-003  6.6260100E-005
  2.5611500E-004 -6.9760200E-003  6.7875900E-005
  2.7484900E-004 -6.7991400E-003  6.9461900E-005
  2.9287900E-004 -6.6164900E-003  7.1015400E-005
  3.1026900E-004 -6.4281200E-003  7.2533300E-005
  3.2687500E-004 -6.2347300E-003  7.4013800E-005
  3.4280300E-004 -6.0364700E-003  7.5455000E-005
  3.5787200E-004 -5.8339300E-003  7.6855600E-005
  3.7219400E-004 -5.6273900E-003  7.8214500E-005
  3.8559000E-004 -5.4173600E-003  7.9530600E-005
  3.9813800E-004 -5.2042000E-003  8.0803400E-005
  4.0969300E-004 -4.9884200E-003  8.2031600E-005
  4.2027700E-004 -4.7703500E-003  8.3214700E-005
  4.2979200E-004 -4.5506100E-003  8.4351200E-005
  4.3820300E-004 -4.3294400E-003  8.5439800E-005
  4.4544300E-004 -4.1076300E-003  8.6478300E-005
  4.5145200E-004 -3.8852400E-003  8.7464300E-005
  4.5615600E-004 -3.6633700E-003  8.8394100E-005
  4.5951100E-004 -3.4417600E-003  8.9263200E-005
  4.6139800E-004 -3.2219100E-003  9.0065700E-005
  4.6182300E-004 -3.0032200E-003  9.0793900E-005
  4.6059900E-004 -2.7876100E-003  9.1438200E-005
  4.5779500E-004 -2.5741300E-003  9.1986200E-005
  4.5316100E-004 -2.3651100E-003  9.2422800E-005
  4.4680800E-004 -2.1592600E-003  9.2728600E-005
  4.3847300E-004 -1.9593600E-003  9.2879800E-005
  4.2823100E-004 -1.7637000E-003  9.2846400E-005
  4.1592200E-004 -1.5756400E-003  9.2591500E-005
  4.0143800E-004 -1.3928800E-003  9.2069100E-005
  3.8491300E-004 -1.2196000E-003  9.1222200E-005
  3.6582000E-004 -1.0525600E-003  8.9980300E-005
  3.4490200E-004 -8.9724100E-004  8.8255600E-005
  3.2079700E-004 -7.4891200E-004  8.5940000E-005
  2.9542300E-004 -6.1497700E-004  8.2898300E-005
  2.6583300E-004 -4.8844500E-004  7.8963800E-005
  2.3615500E-004 -3.7962200E-004  7.3926400E-005
  2.0041000E-004 -2.7808900E-004  6.7528200E-005
  1.6701900E-004 -1.9846200E-004  5.9434100E-005
  1.2410200E-004 -1.2555100E-004  4.9251200E-005
  8.8959400E-005 -7.9188400E-005  3.6432300E-005
  3.8228100E-005 -3.8800900E-005  2.0500900E-005
 -9.7990500E-004 -8.9150600E-004  8.0882700E-005
 -9.6956100E-004 -1.1683700E-003  8.0743500E-005
 -9.5904200E-004 -1.4451900E-003  8.0502500E-005
 -9.4854400E-004 -1.7220600E-003  8.0151000E-005
 -9.3780500E-004 -1.9988000E-003  7.9681200E-005
 -9.2688000E-004 -2.2755100E-003  7.9085500E-005
 -9.1559800E-004 -2.5519000E-003  7.8358400E-005
 -9.0392500E-004 -2.8279400E-003  7.7496600E-005
 -8.9175600E-004 -3.1032200E-003  7.6499600E-005
 -8.7903200E-004 -3.3776000E-003  7.5369700E-005
 -8.6567400E-004 -3.6505700E-003  7.4111900E-005
 -8.5164500E-004 -3.9218700E-003  7.2733700E-005
 -8.3687200E-004 -4.1909300E-003  7.1244700E-005
 -8.2135300E-004 -4.4573600E-003  6.9656700E-005
 -8.0502500E-004 -4.7205600E-003  6.7983400E-005
 -7.8791600E-004 -4.9800600E-003  6.6239900E-005
 -7.6998100E-004 -5.2352300E-003  6.4442500E-005
 -7.5126500E-004 -5.4855300E-003  6.2608500E-005
 -7.3175600E-004 -5.7303300E-003  6.0755900E-005
 -7.1149800E-004 -5.9690500E-003  5.8902900E-005
 -6.9052000E-004 -6.2010900E-003  5.7068000E-005
 -6.6885600E-004 -6.4258600E-003  5.5269200E-005
 -6.4657400E-004 -6.6427800E-003  5.3524300E-005
 -6.2369500E-004 -6.8513100E-003  5.1850200E-005
 -6.0031500E-004 -7.0509000E-003  5.0262900E-005
 -5.7645000E-004 -7.2410500E-003  4.8777100E-005
 -5.5220400E-004 -7.4212800E-003  4.7406500E-005
 -5.2760200E-004 -7.5911600E-003  4.6162900E-005
 -5.0273300E-004 -7.7502900E-003  4.5056700E-005
 -4.7764300E-004 -7.8983100E-003  4.4096700E-005
 -4.5239200E-004 -8.0349000E-003  4.3289800E-005
 -4.2705200E-004 -8.1597900E-003  4.2641000E-005
 -4.0164800E-004 -8.2727400E-003  4.2153900E-005
 -3.7627300E-004 -8.3735700E-003  4.1829900E-005
 -3.5092300E-004 -8.4621400E-003  4.1669000E-005
 -3.2569900E-004 -8.5383400E-003  4.1669600E-005
 -3.0058400E-004 -8.6021200E-003  4.1828400E-005
 -2.7566500E-004 -8.6534500E-003  4.2140800E-005
 -2.5093600E-004 -8.6923800E-003  4.2601000E-005
 -2.2644800E-004 -8.7189400E-003  4.3201900E-005
 -2.0222600E-004 -8.7332400E-003  4.3935600E-005
 -1.7827000E-004 -8.7353900E-003  4.4793300E-005
 -1.5464300E-004 -8.7255700E-003  4.5765600E-005
 -1.3129900E-004 -8.7039400E-003  4.6842400E-005
 -1.0833100E-004 -8.6707200E-003  4.8013600E-005
 -8.5663200E-005 -8.6261600E-003  4.9268500E-005
 -6.3394300E-005 -8.5704800E-003  5.0596700E-005
 -4.1454900E-005 -8.5039800E-003  5.1987600E-005
 -1.9913300E-005 -8.4269400E-003  5.3430800E-005
  1.2573100E-006 -8.3396600E-003  5.4916400E-005
  2.2047700E-005 -8.2424700E-003  5.6434600E-005
  4.2418800E-005 -8.1356800E-003  5.7976400E-005
  6.2429600E-005 -8.0196500E-003  5.9532900E-005
  8.1977400E-005 -7.8946900E-003  6.1096100E-005
  1.0117100E-004 -7.7612100E-003  6.2658500E-005
  1.1987200E-004 -7.6194900E-003  6.4213300E-005
  1.3819900E-004 -7.4699800E-003  6.5754200E-005
  1.5602400E-004 -7.3129600E-003  6.7275800E-005
  1.7342400E-004 -7.1489100E-003  6.8773200E-005
  1.9032800E-004 -6.9780800E-003  7.0242000E-005
  2.0673100E-004 -6.8009900E-003  7.1678600E-005
  2.2264300E-004 -6.6178800E-003  7.3079800E-005
  2.3796900E-004 -6.4292900E-003  7.4443000E-005
  2.5279200E-004 -6.2354700E-003  7.5765900E-005
  2.6695000E-004 -6.0369700E-003  7.7046900E-005
  2.8055800E-004 -5.8340200E-003  7.8284200E-005
  2.9343700E-004 -5.6272300E-003  7.9476700E-005
  3.0568000E-004 -5.4168100E-003  8.0623400E-005
  3.1714300E-004 -5.2034100E-003  8.1723000E-005
  3.2785000E-004 -4.9872200E-003  8.2774900E-005
  3.3773200E-004 -4.7689600E-003  8.3777700E-005
  3.4671400E-004 -4.5487600E-003  8.4730200E-005
  3.5481500E-004 -4.3274800E-003  8.5630700E-005
  3.6187000E-004 -4.1051300E-003  8.6477200E-005
  3.6796100E-004 -3.8827500E-003  8.7267000E-005
  3.7286700E-004 -3.6602200E-003  8.7996500E-005
  3.7669600E-004 -3.4387600E-003  8.8661200E-005
  3.7921200E-004 -3.2181100E-003  8.9255400E-005