# vtk DataFile Version 3.0
MMH: CalculiX output 'object.frd' file to 'vtk' format
ASCII
DATASET UNSTRUCTURED_GRID
POINTS 3232 double
 6.00000000E-001 2.10000000E-001 0.00000000E+000
 6.00000000E-001 2.08667000E-001 0.00000000E+000
 6.00000000E-001 2.07333000E-001 0.00000000E+000
 6.00000000E-001 2.06000000E-001 0.00000000E+000
 6.00000000E-001 2.04667000E-001 0.00000000E+000
 6.00000000E-001 2.03333000E-001 0.00000000E+000
 6.00000000E-001 2.02000000E-001 0.00000000E+000
 6.00000000E-001 2.00667000E-001 0.00000000E+000
 6.00000000E-001 1.99333000E-001 0.00000000E+000
 6.00000000E-001 1.98000000E-001 0.00000000E+000
 6.00000000E-001 1.96667000E-001 0.00000000E+000
 6.00000000E-001 1.95333000E-001 0.00000000E+000
 6.00000000E-001 1.94000000E-001 0.00000000E+000
 6.00000000E-001 1.92667000E-001 0.00000000E+000
 6.00000000E-001 1.91333000E-001 0.00000000E+000
 6.00000000E-001 1.90000000E-001 0.00000000E+000
 5.96490000E-001 1.90000000E-001 0.00000000E+000
 5.92980000E-001 1.90000000E-001 0.00000000E+000
 5.89470000E-001 1.90000000E-001 0.00000000E+000
 5.85960000E-001 1.90000000E-001 0.00000000E+000
 5.82449000E-001 1.90000000E-001 0.00000000E+000
 5.78939000E-001 1.90000000E-001 0.00000000E+000
 5.75429000E-001 1.90000000E-001 0.00000000E+000
 5.71919000E-001 1.90000000E-001 0.00000000E+000
 5.68409000E-001 1.90000000E-001 0.00000000E+000
 5.64899000E-001 1.90000000E-001 0.00000000E+000
 5.61389000E-001 1.90000000E-001 0.00000000E+000
 5.57879000E-001 1.90000000E-001 0.00000000E+000
 5.54369000E-001 1.90000000E-001 0.00000000E+000
 5.50859000E-001 1.90000000E-001 0.00000000E+000
 5.47348000E-001 1.90000000E-001 0.00000000E+000
 5.43838000E-001 1.90000000E-001 0.00000000E+000
 5.40328000E-001 1.90000000E-001 0.00000000E+000
 5.36818000E-001 1.90000000E-001 0.00000000E+000
 5.33308000E-001 1.90000000E-001 0.00000000E+000
 5.29798000E-001 1.90000000E-001 0.00000000E+000
 5.26288000E-001 1.90000000E-001 0.00000000E+000
 5.22778000E-001 1.90000000E-001 0.00000000E+000
 5.19268000E-001 1.90000000E-001 0.00000000E+000
 5.15758000E-001 1.90000000E-001 0.00000000E+000
 5.12247000E-001 1.90000000E-001 0.00000000E+000
 5.08737000E-001 1.90000000E-001 0.00000000E+000
 5.05227000E-001 1.90000000E-001 0.00000000E+000
 5.01717000E-001 1.90000000E-001 0.00000000E+000
 4.98207000E-001 1.90000000E-001 0.00000000E+000
 4.94697000E-001 1.90000000E-001 0.00000000E+000
 4.91187000E-001 1.90000000E-001 0.00000000E+000
 4.87677000E-001 1.90000000E-001 0.00000000E+000
 4.84167000E-001 1.90000000E-001 0.00000000E+000
 4.80657000E-001 1.90000000E-001 0.00000000E+000
 4.77146000E-001 1.90000000E-001 0.00000000E+000
 4.73636000E-001 1.90000000E-001 0.00000000E+000
 4.70126000E-001 1.90000000E-001 0.00000000E+000
 4.66616000E-001 1.90000000E-001 0.00000000E+000
 4.63106000E-001 1.90000000E-001 0.00000000E+000
 4.59596000E-001 1.90000000E-001 0.00000000E+000
 4.56086000E-001 1.90000000E-001 0.00000000E+000
 4.52576000E-001 1.90000000E-001 0.00000000E+000
 4.49066000E-001 1.90000000E-001 0.00000000E+000
 4.45556000E-001 1.90000000E-001 0.00000000E+000
 4.42045000E-001 1.90000000E-001 0.00000000E+000
 4.38535000E-001 1.90000000E-001 0.00000000E+000
 4.35025000E-001 1.90000000E-001 0.00000000E+000
 4.31515000E-001 1.90000000E-001 0.00000000E+000
 4.28005000E-001 1.90000000E-001 0.00000000E+000
 4.24495000E-001 1.90000000E-001 0.00000000E+000
 4.20985000E-001 1.90000000E-001 0.00000000E+000
 4.17475000E-001 1.90000000E-001 0.00000000E+000
 4.13965000E-001 1.90000000E-001 0.00000000E+000
 4.10455000E-001 1.90000000E-001 0.00000000E+000
 4.06944000E-001 1.90000000E-001 0.00000000E+000
 4.03434000E-001 1.90000000E-001 0.00000000E+000
 3.99924000E-001 1.90000000E-001 0.00000000E+000
 3.96414000E-001 1.90000000E-001 0.00000000E+000
 3.92904000E-001 1.90000000E-001 0.00000000E+000
 3.89394000E-001 1.90000000E-001 0.00000000E+000
 3.85884000E-001 1.90000000E-001 0.00000000E+000
 3.82374000E-001 1.90000000E-001 0.00000000E+000
 3.78864000E-001 1.90000000E-001 0.00000000E+000
 3.75353000E-001 1.90000000E-001 0.00000000E+000
 3.71843000E-001 1.90000000E-001 0.00000000E+000
 3.68333000E-001 1.90000000E-001 0.00000000E+000
 3.64823000E-001 1.90000000E-001 0.00000000E+000
 3.61313000E-001 1.90000000E-001 0.00000000E+000
 3.57803000E-001 1.90000000E-001 0.00000000E+000
 3.54293000E-001 1.90000000E-001 0.00000000E+000
 3.50783000E-001 1.90000000E-001 0.00000000E+000
 3.47273000E-001 1.90000000E-001 0.00000000E+000
 3.43763000E-001 1.90000000E-001 0.00000000E+000
 3.40252000E-001 1.90000000E-001 0.00000000E+000
 3.36742000E-001 1.90000000E-001 0.00000000E+000
 3.33232000E-001 1.90000000E-001 0.00000000E+000
 3.29722000E-001 1.90000000E-001 0.00000000E+000
 3.26212000E-001 1.90000000E-001 0.00000000E+000
 3.22702000E-001 1.90000000E-001 0.00000000E+000
 3.19192000E-001 1.90000000E-001 0.00000000E+000
 3.15682000E-001 1.90000000E-001 0.00000000E+000
 3.12172000E-001 1.90000000E-001 0.00000000E+000
 3.08661000E-001 1.90000000E-001 0.00000000E+000
 3.05151000E-001 1.90000000E-001 0.00000000E+000
 3.01641000E-001 1.90000000E-001 0.00000000E+000
 2.98131000E-001 1.90000000E-001 0.00000000E+000
 2.94621000E-001 1.90000000E-001 0.00000000E+000
 2.91111000E-001 1.90000000E-001 0.00000000E+000
 2.87601000E-001 1.90000000E-001 0.00000000E+000
 2.84091000E-001 1.90000000E-001 0.00000000E+000
 2.80581000E-001 1.90000000E-001 0.00000000E+000
 2.77071000E-001 1.90000000E-001 0.00000000E+000
 2.73560000E-001 1.90000000E-001 0.00000000E+000
 2.70050000E-001 1.90000000E-001 0.00000000E+000
 2.66540000E-001 1.90000000E-001 0.00000000E+000
 2.63030000E-001 1.90000000E-001 0.00000000E+000
 2.59520000E-001 1.90000000E-001 0.00000000E+000
 2.56010000E-001 1.90000000E-001 0.00000000E+000
 2.52500000E-001 1.90000000E-001 0.00000000E+000
 2.48990000E-001 1.90000000E-001 0.00000000E+000
 2.48990000E-001 1.91333000E-001 0.00000000E+000
 2.48990000E-001 1.92667000E-001 0.00000000E+000
 2.48990000E-001 1.94000000E-001 0.00000000E+000
 2.48990000E-001 1.95333000E-001 0.00000000E+000
 2.48990000E-001 1.96667000E-001 0.00000000E+000
 2.48990000E-001 1.98000000E-001 0.00000000E+000
 2.48990000E-001 1.99333000E-001 0.00000000E+000
 2.48990000E-001 2.00667000E-001 0.00000000E+000
 2.48990000E-001 2.02000000E-001 0.00000000E+000
 2.48990000E-001 2.03333000E-001 0.00000000E+000
 2.48990000E-001 2.04667000E-001 0.00000000E+000
 2.48990000E-001 2.06000000E-001 0.00000000E+000
 2.48990000E-001 2.07333000E-001 0.00000000E+000
 2.48990000E-001 2.08667000E-001 0.00000000E+000
 2.48990000E-001 2.10000000E-001 0.00000000E+000
 2.52500000E-001 2.10000000E-001 0.00000000E+000
 2.56010000E-001 2.10000000E-001 0.00000000E+000
 2.59520000E-001 2.10000000E-001 0.00000000E+000
 2.63030000E-001 2.10000000E-001 0.00000000E+000
 2.66540000E-001 2.10000000E-001 0.00000000E+000
 2.70050000E-001 2.10000000E-001 0.00000000E+000
 2.73560000E-001 2.10000000E-001 0.00000000E+000
 2.77071000E-001 2.10000000E-001 0.00000000E+000
 2.80581000E-001 2.10000000E-001 0.00000000E+000
 2.84091000E-001 2.10000000E-001 0.00000000E+000
 2.87601000E-001 2.10000000E-001 0.00000000E+000
 2.91111000E-001 2.10000000E-001 0.00000000E+000
 2.94621000E-001 2.10000000E-001 0.00000000E+000
 2.98131000E-001 2.10000000E-001 0.00000000E+000
 3.01641000E-001 2.10000000E-001 0.00000000E+000
 3.05151000E-001 2.10000000E-001 0.00000000E+000
 3.08661000E-001 2.10000000E-001 0.00000000E+000
 3.12172000E-001 2.10000000E-001 0.00000000E+000
 3.15682000E-001 2.10000000E-001 0.00000000E+000
 3.19192000E-001 2.10000000E-001 0.00000000E+000
 3.22702000E-001 2.10000000E-001 0.00000000E+000
 3.26212000E-001 2.10000000E-001 0.00000000E+000
 3.29722000E-001 2.10000000E-001 0.00000000E+000
 3.33232000E-001 2.10000000E-001 0.00000000E+000
 3.36742000E-001 2.10000000E-001 0.00000000E+000
 3.40252000E-001 2.10000000E-001 0.00000000E+000
 3.43763000E-001 2.10000000E-001 0.00000000E+000
 3.47273000E-001 2.10000000E-001 0.00000000E+000
 3.50783000E-001 2.10000000E-001 0.00000000E+000
 3.54293000E-001 2.10000000E-001 0.00000000E+000
 3.57803000E-001 2.10000000E-001 0.00000000E+000
 3.61313000E-001 2.10000000E-001 0.00000000E+000
 3.64823000E-001 2.10000000E-001 0.00000000E+000
 3.68333000E-001 2.10000000E-001 0.00000000E+000
 3.71843000E-001 2.10000000E-001 0.00000000E+000
 3.75353000E-001 2.10000000E-001 0.00000000E+000
 3.78864000E-001 2.10000000E-001 0.00000000E+000
 3.82374000E-001 2.10000000E-001 0.00000000E+000
 3.85884000E-001 2.10000000E-001 0.00000000E+000
 3.89394000E-001 2.10000000E-001 0.00000000E+000
 3.92904000E-001 2.10000000E-001 0.00000000E+000
 3.96414000E-001 2.10000000E-001 0.00000000E+000
 3.99924000E-001 2.10000000E-001 0.00000000E+000
 4.03434000E-001 2.10000000E-001 0.00000000E+000
 4.06944000E-001 2.10000000E-001 0.00000000E+000
 4.10455000E-001 2.10000000E-001 0.00000000E+000
 4.13965000E-001 2.10000000E-001 0.00000000E+000
 4.17475000E-001 2.10000000E-001 0.00000000E+000
 4.20985000E-001 2.10000000E-001 0.00000000E+000
 4.24495000E-001 2.10000000E-001 0.00000000E+000
 4.28005000E-001 2.10000000E-001 0.00000000E+000
 4.31515000E-001 2.10000000E-001 0.00000000E+000
 4.35025000E-001 2.10000000E-001 0.00000000E+000
 4.38535000E-001 2.10000000E-001 0.00000000E+000
 4.42045000E-001 2.10000000E-001 0.00000000E+000
 4.45556000E-001 2.10000000E-001 0.00000000E+000
 4.49066000E-001 2.10000000E-001 0.00000000E+000
 4.52576000E-001 2.10000000E-001 0.00000000E+000
 4.56086000E-001 2.10000000E-001 0.00000000E+000
 4.59596000E-001 2.10000000E-001 0.00000000E+000
 4.63106000E-001 2.10000000E-001 0.00000000E+000
 4.66616000E-001 2.10000000E-001 0.00000000E+000
 4.70126000E-001 2.10000000E-001 0.00000000E+000
 4.73636000E-001 2.10000000E-001 0.00000000E+000
 4.77146000E-001 2.10000000E-001 0.00000000E+000
 4.80657000E-001 2.10000000E-001 0.00000000E+000
 4.84167000E-001 2.10000000E-001 0.00000000E+000
 4.87677000E-001 2.10000000E-001 0.00000000E+000
 4.91187000E-001 2.10000000E-001 0.00000000E+000
 4.94697000E-001 2.10000000E-001 0.00000000E+000
[...]
POINT_DATA 3232
VECTORS DISP double
 -8.1780700E-003  3.3571700E-002 -1.9845400E-005
 -7.7991200E-003  3.3626600E-002 -1.9741100E-005
 -7.4195900E-003  3.3681700E-002 -1.9426800E-005
 -7.0404100E-003  3.3736700E-002 -1.8914600E-005
 -6.6610200E-003  3.3791800E-002 -1.8230300E-005
 -6.2817500E-003  3.3846900E-002 -1.7403300E-005
 -5.9024300E-003  3.3902000E-002 -1.6469900E-005
 -5.5231600E-003  3.3957100E-002 -1.5468900E-005
 -5.1438000E-003  3.4012200E-002 -1.4442800E-005
 -4.7645200E-003  3.4067400E-002 -1.3434400E-005
 -4.3851400E-003  3.4122600E-002 -1.2486100E-005
 -4.0058200E-003  3.4177800E-002 -1.1637900E-005
 -3.6263100E-003  3.4233100E-002 -1.0927900E-005
 -3.2470600E-003  3.4288300E-002 -1.0386200E-005
 -2.8671500E-003  3.4343700E-002 -1.0045700E-005
 -2.4882800E-003  3.4398300E-002 -9.9315100E-006
 -2.3432100E-003  3.3400300E-002 -9.8387700E-006
 -2.1986900E-003  3.2400600E-002 -9.5484400E-006
 -2.0540400E-003  3.1402200E-002 -9.0526100E-006
 -1.9097000E-003  3.0402700E-002 -8.3427100E-006
 -1.7657200E-003  2.9403900E-002 -7.4085100E-006
 -1.6222700E-003  2.8404600E-002 -6.2440200E-006
 -1.4795800E-003  2.7406000E-002 -4.8413000E-006
 -1.3377800E-003  2.6407300E-002 -3.1956900E-006
 -1.1971800E-003  2.5409500E-002 -1.3025900E-006
 -1.0579400E-003  2.4412400E-002  8.4000300E-007
 -9.2041300E-004  2.3416800E-002  3.2326100E-006
 -7.8480500E-004  2.2422700E-002  5.8735400E-006
 -6.5148400E-004  2.1430800E-002  8.7590400E-006
 -5.2071200E-004  2.0441500E-002  1.1883100E-005
 -3.9285300E-004  1.9455500E-002  1.5237800E-005
 -2.6822000E-004  1.8473300E-002  1.8812800E-005
 -1.4717000E-004  1.7495800E-002  2.2596100E-005
 -3.0045100E-005  1.6523600E-002  2.6573100E-005
  8.2804000E-005  1.5557600E-002  3.0728000E-005
  1.9102700E-004  1.4598600E-002  3.5043000E-005
  2.9428800E-004  1.3647500E-002  3.9498500E-005
  3.9224100E-004  1.2705300E-002  4.4073800E-005
  4.8458300E-004  1.1773100E-002  4.8746600E-005
  5.7097700E-004  1.0851700E-002  5.3493900E-005
  6.5118000E-004  9.9423700E-003  5.8291300E-005
  7.2486400E-004  9.0461800E-003  6.3114400E-005
  7.9186500E-004  8.1641100E-003  6.7937800E-005
  8.5188500E-004  7.2975100E-003  7.2735900E-005
  9.0484000E-004  6.4472300E-003  7.7483800E-005
  9.5048800E-004  5.6147400E-003  8.2155300E-005
  9.8881100E-004  4.8008300E-003  8.6726900E-005
  1.0196700E-003  4.0069600E-003  9.1173200E-005
  1.0430800E-003  3.2339200E-003  9.5472300E-005
  1.0590600E-003  2.4830100E-003  9.9601100E-005
  1.0676100E-003  1.7551700E-003  1.0354000E-004
  1.0689300E-003  1.0513300E-003  1.0726800E-004
  1.0630400E-003  3.7267400E-004  1.1076900E-004
  1.0502600E-003 -2.8030000E-004  1.1402600E-004
  1.0306700E-003 -9.0622100E-004  1.1702500E-004
  1.0046900E-003 -1.5049800E-003  1.1975400E-004
  9.7248100E-004 -2.0751500E-003  1.2220100E-004
  9.3447700E-004 -2.6168400E-003  1.2435900E-004
  8.9099600E-004 -3.1288700E-003  1.2622000E-004
  8.4243000E-004 -3.6112700E-003  1.2777900E-004
  7.8924300E-004 -4.0633500E-003  1.2903200E-004
  7.3178700E-004 -4.4849300E-003  1.2997800E-004
  6.7063000E-004 -4.8759400E-003  1.3061500E-004
  6.0610700E-004 -5.2359000E-003  1.3094300E-004
  5.3882500E-004 -5.5653500E-003  1.3096500E-004
  4.6914400E-004 -5.8636300E-003  1.3068200E-004
  3.9763700E-004 -6.1316900E-003  1.3009900E-004
  3.2472100E-004 -6.3689500E-003  1.2921900E-004
  2.5089300E-004 -6.5764600E-003  1.2804600E-004
  1.7662100E-004 -6.7540100E-003  1.2658600E-004
  1.0232200E-004 -6.9024900E-003  1.2484300E-004
  2.8481900E-005 -7.0222200E-003  1.2282400E-004
 -4.4537800E-005 -7.1138400E-003  1.2053400E-004
 -1.1629000E-004 -7.1782000E-003  1.1797900E-004
 -1.8642700E-004 -7.2157100E-003  1.1516500E-004
 -2.5459400E-004 -7.2276400E-003  1.1209800E-004
 -3.2042400E-004 -7.2143400E-003  1.0878300E-004
 -3.8368700E-004 -7.1772300E-003  1.0522800E-004
 -4.4399100E-004 -7.1168800E-003  1.0143700E-004
 -5.0122500E-004 -7.0345600E-003  9.7418900E-005
 -5.5499700E-004 -6.9312900E-003  9.3177700E-005
 -6.0528700E-004 -6.8079900E-003  8.8720900E-005
 -6.5173300E-004 -6.6662400E-003  8.4055100E-005
 -6.9437100E-004 -6.5065400E-003  7.9186800E-005
 -7.3290300E-004 -6.3310000E-003  7.4124100E-005
 -7.6739200E-004 -6.1397900E-003  6.8873400E-005
 -7.9761300E-004 -5.9353800E-003  6.3444500E-005
 -8.2365400E-004 -5.7177700E-003  5.7844900E-005
 -8.4534400E-004 -5.4896000E-003  5.2085400E-005
 -8.6281900E-004 -5.2508500E-003  4.6176100E-005
 -8.7591300E-004 -5.0042000E-003  4.0128800E-005
 -8.8485500E-004 -4.7497100E-003  3.3957400E-005
 -8.8943000E-004 -4.4900200E-003  2.7675700E-005
 -8.8999900E-004 -4.2252100E-003  2.1302600E-005
 -8.8624700E-004 -3.9580400E-003  1.4855200E-005
 -8.7869700E-004 -3.6883700E-003  8.3587800E-006
 -8.6690100E-004 -3.4193500E-003  1.8363200E-006
 -8.5154800E-004 -3.1502800E-003 -4.6782200E-006
 -8.3205600E-004 -2.8850800E-003 -1.1152300E-005
 -8.0924300E-004 -2.6220700E-003 -1.7540100E-005
 -7.8243800E-004 -2.3663200E-003 -2.3794500E-005
 -7.5250900E-004 -2.1148100E-003 -2.9851600E-005
 -7.1878200E-004 -1.8741200E-003 -3.5642800E-005
 -6.8204100E-004 -1.6395000E-003 -4.1076600E-005
 -6.4177700E-004 -1.4194200E-003 -4.6052300E-005
 -5.9843800E-004 -1.2069700E-003 -5.0435600E-005
 -5.5201800E-004 -1.0130100E-003 -5.4077800E-005
 -5.0213200E-004 -8.2786100E-004 -5.6776800E-005
 -4.4997600E-004 -6.6554100E-004 -5.8312500E-005
 -3.9330100E-004 -5.1249900E-004 -5.8372400E-005
 -3.3601000E-004 -3.8756000E-004 -5.6628500E-005
 -2.7171200E-004 -2.7085000E-004 -5.2578200E-005
 -2.1082800E-004 -1.9005800E-004 -4.5740900E-005
 -1.3779800E-004 -1.1162100E-004 -3.5269400E-005
 -8.2134100E-005 -8.3100200E-005 -2.0657500E-005
  0.0000000E+000  0.0000000E+000  0.0000000E+000
  0.0000000E+000  0.0000000E+000  0.0000000E+000
  0.0000000E+000  0.0000000E+000  0.0000000E+000
  0.0000000E+000  0.0000000E+000  0.0000000E+000
  0.0000000E+000  0.0000000E+000  0.0000000E+000
  0.0000000E+000  0.0000000E+000  0.0000000E+000
  0.0000000E+000  0.0000000E+000  0.0000000E+000
  0.0000000E+000  0.0000000E+000  0.0000000E+000
  0.0000000E+000  0.0000000E+000  0.0000000E+000
  0.0000000E+000  0.0000000E+000  0.0000000E+000
  0.0000000E+000  0.0000000E+000  0.0000000E+000
  0.0000000E+000  0.0000000E+000  0.0000000E+000
  0.0000000E+000  0.0000000E+000  0.0000000E+000
  0.0000000E+000  0.0000000E+000  0.0000000E+000
  0.0000000E+000  0.0000000E+000  0.0000000E+000
  0.0000000E+000  0.0000000E+000  0.0000000E+000
  7.5504700E-005 -7.6960300E-005  2.1621100E-005
  1.2985700E-004 -1.0774500E-004  3.7163600E-005
  1.9738000E-004 -1.8716400E-004  4.8509900E-005
  2.5346400E-004 -2.7171300E-004  5.6222200E-005
  3.1075100E-004 -3.9100500E-004  6.1134200E-005
  3.6040100E-004 -5.2062900E-004  6.3726000E-005
  4.0766100E-004 -6.7691100E-004  6.4484200E-005
  4.4923300E-004 -8.4436300E-004  6.3723800E-005
  4.8688200E-004 -1.0329600E-003  6.1743600E-005
  5.1970400E-004 -1.2320200E-003  5.8748000E-005
  5.4793100E-004 -1.4478100E-003  5.4928500E-005
  5.7173400E-004 -1.6724800E-003  5.0419400E-005
  5.9071700E-004 -1.9100900E-003  4.5346300E-005
  6.0550300E-004 -2.1544800E-003  3.9799000E-005
  6.1548100E-004 -2.4084000E-003  3.3861500E-005
  6.2143800E-004 -2.6666900E-003  2.7595600E-005
  6.2272700E-004 -2.9313500E-003  2.1058400E-005
  6.2017600E-004 -3.1978200E-003  1.4294600E-005
  6.1316400E-004 -3.4676000E-003  7.3444800E-006
  6.0251200E-004 -3.7366000E-003  2.4215400E-007
  5.8764600E-004 -4.0059100E-003 -6.9824200E-006
  5.6935000E-004 -4.2719100E-003 -1.4301700E-005
  5.4711600E-004 -4.5352000E-003 -2.1691200E-005
  5.2165800E-004 -4.7927500E-003 -2.9127800E-005
  4.9255000E-004 -5.0446200E-003 -3.6589500E-005
  4.6041100E-004 -5.2883700E-003 -4.4056000E-005
  4.2491000E-004 -5.5235600E-003 -5.1506100E-005
  3.8654900E-004 -5.7482900E-003 -5.8921300E-005
  3.4510000E-004 -5.9617200E-003 -6.6280400E-005
  3.0093500E-004 -6.1623700E-003 -7.3565400E-005
  2.5392500E-004 -6.3491600E-003 -8.0755100E-005
  2.0431900E-004 -6.5208700E-003 -8.7831300E-005
  1.5206100E-004 -6.6763900E-003 -9.4772800E-005
  9.7301700E-005 -6.8145400E-003 -1.0156100E-004
  4.0027500E-005 -6.9343600E-003 -1.0817500E-004
 -1.9678300E-005 -7.0346200E-003 -1.1459500E-004
 -8.1822300E-005 -7.1146000E-003 -1.2080100E-004
 -1.4635900E-004 -7.1729800E-003 -1.2677300E-004
 -2.1331300E-004 -7.2092600E-003 -1.3249100E-004
 -2.8265500E-004 -7.2221200E-003 -1.3793600E-004
 -3.5444300E-004 -7.2111900E-003 -1.4308900E-004
 -4.2864700E-004 -7.1752600E-003 -1.4793000E-004
 -5.0536300E-004 -7.1140100E-003 -1.5244200E-004
 -5.8456200E-004 -7.0264300E-003 -1.5660700E-004
 -6.6636300E-004 -6.9121700E-003 -1.6040900E-004
 -7.5074300E-004 -6.7705100E-003 -1.6383200E-004
 -8.3782900E-004 -6.6010500E-003 -1.6686200E-004
 -9.2760700E-004 -6.4033600E-003 -1.6948600E-004
 -1.0202000E-003 -6.1769900E-003 -1.7169200E-004
 -1.1156100E-003 -5.9218000E-003 -1.7347100E-004
 -1.2139200E-003 -5.6373800E-003 -1.7481400E-004
 -1.3151600E-003 -5.3237500E-003 -1.7571600E-004
 -1.4193900E-003 -4.9806600E-003 -1.7617300E-004
 -1.5266300E-003 -4.6082400E-003 -1.7618300E-004
 -1.6368900E-003 -4.2064500E-003 -1.7574800E-004
 -1.7502200E-003 -3.7754500E-003 -1.7487000E-004
 -1.8665800E-003 -3.3154700E-003 -1.7355500E-004
 -1.9859900E-003 -2.8267200E-003 -1.7181200E-004
 -2.1083800E-003 -2.3096500E-003 -1.6965200E-004
 -2.2337600E-003 -1.7645500E-003 -1.6708900E-004
 -2.3620200E-003 -1.1920500E-003 -1.6413900E-004
 -2.4931200E-003 -5.9256000E-004 -1.6082100E-004
 -2.6269500E-003  3.3171100E-005 -1.5715600E-004
 -2.7634200E-003  6.8457200E-004 -1.5316700E-004
 -2.9024000E-003  1.3608300E-003 -1.4888100E-004
 -3.0437400E-003  2.0611900E-003 -1.4432400E-004
 -3.1873300E-003  2.7848200E-003 -1.3952500E-004
 -3.3329600E-003  3.5307700E-003 -1.3451500E-004
 -3.4805200E-003  4.2982200E-003 -1.2932500E-004
 -3.6297700E-003  5.0860800E-003 -1.2398700E-004
 -3.7805800E-003  5.8935100E-003 -1.1853400E-004
 -3.9327200E-003  6.7193400E-003 -1.1299900E-004
 -4.0860200E-003  7.5626800E-003 -1.0741500E-004
 -4.2402800E-003  8.4223700E-003 -1.0181400E-004
 -4.3953000E-003  9.2974300E-003 -9.6228200E-005
 -4.5509200E-003  1.0186800E-002 -9.0689100E-005
 -4.7069100E-003  1.1089400E-002 -8.5226100E-005
 -4.8631600E-003  1.2004300E-002 -7.9867600E-005
 -5.0194300E-003  1.2930300E-002 -7.4640800E-005
 -5.1756400E-003  1.3866700E-002 -6.9570500E-005
 -5.3315800E-003  1.4812100E-002 -6.4680300E-005
 -5.4871900E-003  1.5766000E-002 -5.9990700E-005
 -5.6423000E-003  1.6727300E-002 -5.5521000E-005
 -5.7968600E-003  1.7695100E-002 -5.1287300E-005
 -5.9507700E-003  1.8668700E-002 -4.7304000E-005
 -6.1039600E-003  1.9647200E-002 -4.3582400E-005
 -6.2564200E-003  2.0630100E-002 -4.0131700E-005
 -6.4080800E-003  2.1616500E-002 -3.6958600E-005
 -6.5589900E-003  2.2606000E-002 -3.4066900E-005
 -6.7090900E-003  2.3597900E-002 -3.1458700E-005
 -6.8584700E-003  2.4591900E-002 -2.9132700E-005
 -7.0071000E-003  2.5587200E-002 -2.7086400E-005
 -7.1551100E-003  2.6583800E-002 -2.5314300E-005
 -7.3024600E-003  2.7581200E-002 -2.3809500E-005
 -7.4493600E-003  2.8579200E-002 -2.2563100E-005
 -7.5956900E-003  2.9577500E-002 -2.1565300E-005
 -7.7417900E-003  3.0575900E-002 -2.0804800E-005
 -7.8873600E-003  3.1574500E-002 -2.0271700E-005
 -8.0330400E-003  3.2573000E-002 -1.9953200E-005
 -7.6534800E-003  3.2628200E-002 -1.9844400E-005
 -7.5081600E-003  3.1629500E-002 -2.0154200E-005
 -7.3623000E-003  3.0630900E-002 -2.0674800E-005
 -7.2163700E-003  2.9632300E-002 -2.1416800E-005
 -7.0699500E-003  2.8633900E-002 -2.2390800E-005
 -6.9232200E-003  2.7635700E-002 -2.3607300E-005
 -6.7759600E-003  2.6638100E-002 -2.5076000E-005
 -6.6282400E-003  2.5641200E-002 -2.6805500E-005
 -6.4799200E-003  2.4645400E-002 -2.8802700E-005
 -6.3310500E-003  2.3651100E-002 -3.1072600E-005
 -6.1815500E-003  2.2658700E-002 -3.3618200E-005
 -6.0314600E-003  2.1668600E-002 -3.6440300E-005
 -5.8807900E-003  2.0681500E-002 -3.9537200E-005
 -5.7295400E-003  1.9697800E-002 -4.2905100E-005
 -5.5778000E-003  1.8718300E-002 -4.6537500E-005
 -5.4255900E-003  1.7743700E-002 -5.0425600E-005
 -5.2730400E-003  1.6774800E-002 -5.4558200E-005
 -5.1201900E-003  1.5812300E-002 -5.8921500E-005
 -4.9672200E-003  1.4857100E-002 -6.3499500E-005
 -4.8142000E-003  1.3910100E-002 -6.8273700E-005
 -4.6613100E-003  1.2972200E-002 -7.3223900E-005
 -4.5086900E-003  1.2044500E-002 -7.8327200E-005
 -4.3565200E-003  1.1127800E-002 -8.3559400E-005
 -4.2049600E-003  1.0223300E-002 -8.8894000E-005
 -4.0542000E-003  9.3319100E-003 -9.4303100E-005
 -3.9044500E-003  8.4547400E-003 -9.9757800E-005
 -3.7558700E-003  7.5928500E-003 -1.0522800E-004
 -3.6086900E-003  6.7472900E-003 -1.1068200E-004
 -3.4630700E-003  5.9190900E-003 -1.1608800E-004
 -3.3192200E-003  5.1093400E-003 -1.2141400E-004
 -3.1773300E-003  4.3190100E-003 -1.2662800E-004
 -3.0375600E-003  3.5491600E-003 -1.3169700E-004
 -2.9001000E-003  2.8007100E-003 -1.3659100E-004
 -2.7650800E-003  2.0746500E-003 -1.4127900E-004
 -2.6326800E-003  1.3718400E-003 -1.4573000E-004
 -2.5029900E-003  6.9315500E-004 -1.4991600E-004
 -2.3761700E-003  3.9403300E-005 -1.5381200E-004
 -2.2522800E-003 -5.8868800E-004 -1.5739100E-004
 -2.1314400E-003 -1.1903800E-003 -1.6063000E-004
 -2.0136800E-003 -1.7651100E-003 -1.6351000E-004
 -1.8990700E-003 -2.3122300E-003 -1.6601100E-004
 -1.7876300E-003 -2.8313100E-003 -1.6811700E-004
 -1.6793700E-003 -3.3218700E-003 -1.6981500E-004
 -1.5743100E-003 -3.7836100E-003 -1.7109400E-004
 -1.4724000E-003 -4.2161900E-003 -1.7194600E-004
 -1.3736500E-003 -4.6194300E-003 -1.7236500E-004
 -1.2779700E-003 -4.9931900E-003 -1.7234700E-004
 -1.1853400E-003 -5.3374000E-003 -1.7189200E-004
 -1.0956700E-003 -5.6520900E-003 -1.7100000E-004
 -1.0089000E-003 -5.9373100E-003 -1.6967700E-004
 -9.2495400E-004 -6.1932700E-003 -1.6792800E-004
 -8.4374100E-004 -6.4201500E-003 -1.6576000E-004
 -7.6518800E-004 -6.6182700E-003 -1.6318300E-004
 -6.8918700E-004 -6.7880000E-003 -1.6020800E-004
 -6.1568600E-004 -6.9297400E-003 -1.5684900E-004
 -5.4456500E-004 -7.0440500E-003 -1.5311900E-004
 -4.7578700E-004 -7.1313800E-003 -1.4903400E-004
 -4.0924600E-004 -7.1925000E-003 -1.4460900E-004
 -3.4490300E-004 -7.2278900E-003 -1.3986300E-004
 -2.8269400E-004 -7.2385100E-003 -1.3481200E-004
 -2.2256200E-004 -7.2248700E-003 -1.2947500E-004
 -1.6450900E-004 -7.1881000E-003 -1.2387200E-004
 -1.0844800E-004 -7.1287800E-003 -1.1802000E-004
 -5.4454200E-005 -7.0481200E-003 -1.1194100E-004
 -2.4214700E-006 -6.9468300E-003 -1.0565400E-004
  4.7519300E-005 -6.8261500E-003 -9.9177200E-005
  9.5468800E-005 -6.6869300E-003 -9.2531700E-005
  1.4126500E-004 -6.5304400E-003 -8.5737000E-005
  1.8497800E-004 -6.3576100E-003 -7.8812300E-005
  2.2644100E-004 -6.1698000E-003 -7.1777400E-005
  2.6567600E-004 -5.9679500E-003 -6.4651500E-005
  3.0252500E-004 -5.7535700E-003 -5.7454000E-005
  3.3696300E-004 -5.5275100E-003 -5.0203900E-005
  3.6883300E-004 -5.2915500E-003 -4.2921000E-005
  3.9809100E-004 -5.0463000E-003 -3.5624300E-005
  4.2455500E-004 -4.7939000E-003 -2.8333800E-005
  4.4820000E-004 -4.5346600E-003 -2.1070100E-005
  4.6879000E-004 -4.2711400E-003 -1.3854300E-005
  4.8635500E-004 -4.0032600E-003 -6.7092100E-006
  5.0058900E-004 -3.7340400E-003  3.4130100E-007
  5.1159700E-004 -3.4629900E-003  7.2703100E-006
  5.1900900E-004 -3.1936000E-003  1.4048700E-005
  5.2298200E-004 -2.9249100E-003  2.0642500E-005
  5.2315500E-004 -2.6609800E-003  2.7013600E-005
  5.1964500E-004 -2.4002400E-003  3.3116600E-005
  5.1224000E-004 -2.1474700E-003  3.8898300E-005
  5.0084500E-004 -1.9002600E-003  4.4294600E-005
  4.8564200E-004 -1.6644200E-003  4.9228500E-005
  4.6601800E-004 -1.4362700E-003  5.3606200E-005
  4.4296200E-004 -1.2232100E-003  5.7312700E-005
  4.1481600E-004 -1.0195600E-003  6.0207400E-005
  3.8409800E-004 -8.3515300E-004  6.2115600E-005
  3.4713600E-004 -6.6130000E-004  6.2822700E-005
  3.0931800E-004 -5.1150700E-004  6.2057800E-005
  2.6309100E-004 -3.7254900E-004  5.9488900E-005
  2.1938000E-004 -2.6344300E-004  5.4682900E-005
  1.6306700E-004 -1.6472500E-004  4.7131200E-005
  1.1651900E-004 -1.0214100E-004  3.6122400E-005
  5.0031300E-005 -4.9283300E-005  2.1040500E-005
 -7.2743300E-003  3.2683200E-002 -1.9521500E-005
 -7.1286800E-003  3.1684500E-002 -1.9808100E-005
 -6.9830600E-003  3.0685800E-002 -2.0292000E-005
 -6.8370000E-003  2.9687100E-002 -2.0981500E-005
 -6.6907700E-003  2.8688500E-002 -2.1887000E-005
 -6.5440900E-003  2.7690200E-002 -2.3017800E-005
 -6.3971000E-003  2.6692400E-002 -2.4383200E-005
 -6.2496300E-003  2.5695200E-002 -2.5991000E-005
 -6.1017600E-003  2.4699100E-002 -2.7847700E-005
 -5.9534000E-003  2.3704400E-002 -2.9957900E-005
 -5.8046100E-003  2.2711400E-002 -3.2324600E-005
 -5.6553900E-003  2.1720800E-002 -3.4948400E-005
 -5.5057600E-003  2.0733000E-002 -3.7828200E-005
 -5.3558100E-003  1.9748600E-002 -4.0960100E-005
 -5.2055600E-003  1.8768200E-002 -4.4338500E-005
 -5.0551600E-003  1.7792700E-002 -4.7955300E-005
 -4.9046300E-003  1.6822700E-002 -5.1800000E-005
 -4.7541600E-003  1.5859000E-002 -5.5860000E-005
 -4.6038400E-003  1.4902500E-002 -6.0120400E-005
 -4.4538400E-003  1.3954100E-002 -6.4564300E-005
 -4.3043000E-003  1.3014800E-002 -6.9172600E-005
 -4.1554000E-003  1.2085400E-002 -7.3924500E-005
 -4.0073300E-003  1.1167100E-002 -7.8796900E-005
 -3.8602600E-003  1.0260700E-002 -8.3765700E-005
 -3.7144000E-003  9.3674200E-003 -8.8804700E-005
 -3.5699300E-003  8.4882700E-003 -9.3887000E-005
 -3.4270700E-003  7.6243000E-003 -9.8984200E-005
 -3.2860000E-003  6.7765900E-003 -1.0406700E-004
 -3.1469300E-003  5.9461900E-003 -1.0910600E-004
 -3.0100300E-003  5.1341600E-003 -1.1407100E-004
 -2.8754900E-003  4.3415400E-003 -1.1893200E-004
 -2.7434900E-003  3.5693400E-003 -1.2365800E-004
 -2.6141700E-003  2.8185500E-003 -1.2822100E-004
 -2.4877000E-003  2.0901200E-003 -1.3259100E-004
 -2.3641900E-003  1.3849700E-003 -1.3674000E-004
 -2.2437700E-003  7.0396500E-004 -1.4064200E-004
 -2.1265100E-003  4.7922800E-005 -1.4427200E-004
 -2.0125300E-003 -5.8239000E-004 -1.4760500E-004
 -1.9018500E-003 -1.1862700E-003 -1.5062100E-004
 -1.7945400E-003 -1.7630700E-003 -1.5330000E-004
 -1.6906000E-003 -2.3122200E-003 -1.5562300E-004
 -1.5900400E-003 -2.8332000E-003 -1.5757700E-004
 -1.4928500E-003 -3.3255800E-003 -1.5914800E-004
 -1.3989800E-003 -3.7889800E-003 -1.6032600E-004
 -1.3084200E-003 -4.2231300E-003 -1.6110200E-004
 -1.2210600E-003 -4.6278000E-003 -1.6147200E-004
 -1.1368600E-003 -5.0028600E-003 -1.6143200E-004
 -1.0557100E-003 -5.3482200E-003 -1.6098200E-004
 -9.7753500E-004 -5.6639200E-003 -1.6012200E-004
 -9.0221400E-004 -5.9500200E-003 -1.5885600E-004
 -8.2963700E-004 -6.2067000E-003 -1.5719000E-004
 -7.5971100E-004 -6.4341600E-003 -1.5513100E-004
 -6.9228500E-004 -6.6327300E-003 -1.5268800E-004
 -6.2729700E-004 -6.8027400E-003 -1.4987200E-004
 -5.6457100E-004 -6.9446900E-003 -1.4669500E-004
 -5.0406900E-004 -7.0589900E-003 -1.4317100E-004
 -4.4561900E-004 -7.1463100E-003 -1.3931300E-004
 -3.8918700E-004 -7.2071500E-003 -1.3513800E-004
 -3.3463800E-004 -7.2423200E-003 -1.3066100E-004
 -2.8192500E-004 -7.2524300E-003 -1.2590100E-004
 -2.3097500E-004 -7.2384000E-003 -1.2087400E-004
 -1.8171300E-004 -7.2009300E-003 -1.1559800E-004
 -1.3414400E-004 -7.1410600E-003 -1.1009200E-004
 -8.8168200E-005 -7.0595600E-003 -1.0437500E-004
 -4.3856600E-005 -6.9575800E-003 -9.8465300E-005
 -1.1092500E-006 -6.8359600E-003 -9.2381400E-005
  3.9965400E-005 -6.6959600E-003 -8.6142400E-005
  7.9432200E-005 -6.5384300E-003 -7.9767000E-005
  1.1718500E-004 -6.3647800E-003 -7.3273900E-005
  1.5321600E-004 -6.1758600E-003 -6.6681600E-005
  1.8745700E-004 -5.9732200E-003 -6.0008600E-005
  2.1980700E-004 -5.7576400E-003 -5.3273000E-005
  2.5024900E-004 -5.5308900E-003 -4.6493400E-005
  2.7859600E-004 -5.2936200E-003 -3.9687900E-005
  3.0487000E-004 -5.0478300E-003 -3.2874900E-005
  3.2882700E-004 -4.7940200E-003 -2.6073100E-005
  3.5050400E-004 -4.5344500E-003 -1.9301800E-005
  3.6963500E-004 -4.2694000E-003 -1.2581000E-005