# vtk DataFile Version 3.0
MMH: CalculiX output 'object.frd' file to 'vtk' format
ASCII
DATASET UNSTRUCTURED_GRID
POINTS 3232 double
 6.00000000E-001 2.10000000E-001 0.00000000E+000
 6.00000000E-001 2.08667000E-001 0.00000000E+000
 6.00000000E-001 2.07333000E-001 0.00000000E+000
 6.00000000E-001 2.06000000E-001 0.00000000E+000
 6.00000000E-001 2.04667000E-001 0.00000000E+000
 6.00000000E-001 2.03333000E-001 0.00000000E+000
 6.00000000E-001 2.02000000E-001 0.00000000E+000
 6.00000000E-001 2.00667000E-001 0.00000000E+000
 6.00000000E-001 1.99333000E-001 0.00000000E+000
 6.00000000E-001 1.98000000E-001 0.00000000E+000
 6.00000000E-001 1.96667000E-001 0.00000000E+000
 6.00000000E-001 1.95333000E-001 0.00000000E+000
 6.00000000E-001 1.94000000E-001 0.00000000E+000
 6.00000000E-001 1.92667000E-001 0.00000000E+000
 6.00000000E-001 1.91333000E-001 0.00000000E+000
 6.00000000E-001 1.90000000E-001 0.00000000E+000
 5.96490000E-001 1.90000000E-001 0.00000000E+000
 5.92980000E-001 1.90000000E-001 0.00000000E+000
 5.89470000E-001 1.90000000E-001 0.00000000E+000
 5.85960000E-001 1.90000000E-001 0.00000000E+000
 5.82449000E-001 1.90000000E-001 0.00000000E+000
 5.78939000E-001 1.90000000E-001 0.00000000E+000
 5.75429000E-001 1.90000000E-001 0.00000000E+000
 5.71919000E-001 1.90000000E-001 0.00000000E+000
 5.68409000E-001 1.90000000E-001 0.00000000E+000
 5.64899000E-001 1.90000000E-001 0.00000000E+000
 5.61389000E-001 1.90000000E-001 0.00000000E+000
 5.57879000E-001 1.90000000E-001 0.00000000E+000
 5.54369000E-001 1.90000000E-001 0.00000000E+000
 5.50859000E-001 1.90000000E-001 0.00000000E+000
 5.47348000E-001 1.90000000E-001 0.00000000E+000
 5.43838000E-001 1.90000000E-001 0.00000000E+000
 5.40328000E-001 1.90000000E-001 0.00000000E+000
 5.36818000E-001 1.90000000E-001 0.00000000E+000
 5.33308000E-001 1.90000000E-001 0.00000000E+000
 5.29798000E-001 1.90000000E-001 0.00000000E+000
 5.26288000E-001 1.90000000E-001 0.00000000E+000
 5.22778000E-001 1.90000000E-001 0.00000000E+000
 5.19268000E-001 1.90000000E-001 0.00000000E+000
 5.15758000E-001 1.90000000E-001 0.00000000E+000
 5.12247000E-001 1.90000000E-001 0.00000000E+000
 5.08737000E-001 1.90000000E-001 0.00000000E+000
 5.05227000E-001 1.90000000E-001 0.00000000E+000
 5.01717000E-001 1.90000000E-001 0.00000000E+000
 4.98207000E-001 1.90000000E-001 0.00000000E+000
 4.94697000E-001 1.90000000E-001 0.00000000E+000
 4.91187000E-001 1.90000000E-001 0.00000000E+000
 4.87677000E-001 1.90000000E-001 0.00000000E+000
 4.84167000E-001 1.90000000E-001 0.00000000E+000
 4.80657000E-001 1.90000000E-001 0.00000000E+000
 4.77146000E-001 1.90000000E-001 0.00000000E+000
 4.73636000E-001 1.90000000E-001 0.00000000E+000
 4.70126000E-001 1.90000000E-001 0.00000000E+000
 4.66616000E-001 1.90000000E-001 0.00000000E+000
 4.63106000E-001 1.90000000E-001 0.00000000E+000
 4.59596000E-001 1.90000000E-001 0.00000000E+000
 4.56086000E-001 1.90000000E-001 0.00000000E+000
 4.52576000E-001 1.90000000E-001 0.00000000E+000
 4.49066000E-001 1.90000000E-001 0.00000000E+000
 4.45556000E-001 1.90000000E-001 0.00000000E+000
 4.42045000E-001 1.90000000E-001 0.00000000E+000
 4.38535000E-001 1.90000000E-001 0.00000000E+000
 4.35025000E-001 1.90000000E-001 0.00000000E+000
 4.31515000E-001 1.90000000E-001 0.00000000E+000
 4.28005000E-001 1.90000000E-001 0.00000000E+000
 4.24495000E-001 1.90000000E-001 0.00000000E+000
 4.20985000E-001 1.90000000E-001 0.00000000E+000
 4.17475000E-001 1.90000000E-001 0.00000000E+000
 4.13965000E-001 1.90000000E-001 0.00000000E+000
 4.10455000E-001 1.90000000E-001 0.00000000E+000
 4.06944000E-001 1.90000000E-001 0.00000000E+000
 4.03434000E-001 1.90000000E-001 0.00000000E+000
 3.99924000E-001 1.90000000E-001 0.00000000E+000
 3.96414000E-001 1.90000000E-001 0.00000000E+000
 3.92904000E-001 1.90000000E-001 0.00000000E+000
 3.89394000E-001 1.90000000E-001 0.00000000E+000
 3.85884000E-001 1.90000000E-001 0.00000000E+000
 3.82374000E-001 1.90000000E-001 0.00000000E+000
 3.78864000E-001 1.90000000E-001 0.00000000E+000
 3.75353000E-001 1.90000000E-001 0.00000000E+000
 3.71843000E-001 1.90000000E-001 0.00000000E+000
 3.68333000E-001 1.90000000E-001 0.00000000E+000
 3.64823000E-001 1.90000000E-001 0.00000000E+000
 3.61313000E-001 1.90000000E-001 0.00000000E+000
 3.57803000E-001 1.90000000E-001 0.00000000E+000
 3.54293000E-001 1.90000000E-001 0.00000000E+000
 3.50783000E-001 1.90000000E-001 0.00000000E+000
 3.47273000E-001 1.90000000E-001 0.00000000E+000
 3.43763000E-001 1.90000000E-001 0.00000000E+000
 3.40252000E-001 1.90000000E-001 0.00000000E+000
 3.36742000E-001 1.90000000E-001 0.00000000E+000
 3.33232000E-001 1.90000000E-001 0.00000000E+000
 3.29722000E-001 1.90000000E-001 0.00000000E+000
 3.26212000E-001 1.90000000E-001 0.00000000E+000
 3.22702000E-001 1.90000000E-001 0.00000000E+000
 3.19192000E-001 1.90000000E-001 0.00000000E+000
 3.15682000E-001 1.90000000E-001 0.00000000E+000
 3.12172000E-001 1.90000000E-001 0.00000000E+000
 3.08661000E-001 1.90000000E-001 0.00000000E+000
 3.05151000E-001 1.90000000E-001 0.00000000E+000
 3.01641000E-001 1.90000000E-001 0.00000000E+000
 2.98131000E-001 1.90000000E-001 0.00000000E+000
 2.94621000E-001 1.90000000E-001 0.00000000E+000
 2.91111000E-001 1.90000000E-001 0.00000000E+000
 2.87601000E-001 1.90000000E-001 0.00000000E+000
 2.84091000E-001 1.90000000E-001 0.00000000E+000
 2.80581000E-001 1.90000000E-001 0.00000000E+000
 2.77071000E-001 1.90000000E-001 0.00000000E+000
 2.73560000E-001 1.90000000E-001 0.00000000E+000
 2.70050000E-001 1.90000000E-001 0.00000000E+000
 2.66540000E-001 1.90000000E-001 0.00000000E+000
 2.63030000E-001 1.90000000E-001 0.00000000E+000
 2.59520000E-001 1.90000000E-001 0.00000000E+000
 2.56010000E-001 1.90000000E-001 0.00000000E+000
 2.52500000E-001 1.90000000E-001 0.00000000E+000
 2.48990000E-001 1.90000000E-001 0.00000000E+000
 2.48990000E-001 1.91333000E-001 0.00000000E+000
 2.48990000E-001 1.92667000E-001 0.00000000E+000
 2.48990000E-001 1.94000000E-001 0.00000000E+000
 2.48990000E-001 1.95333000E-001 0.00000000E+000
 2.48990000E-001 1.96667000E-001 0.00000000E+000
 2.48990000E-001 1.98000000E-001 0.00000000E+000
 2.48990000E-001 1.99333000E-001 0.00000000E+000
 2.48990000E-001 2.00667000E-001 0.00000000E+000
 2.48990000E-001 2.02000000E-001 0.00000000E+000
 2.48990000E-001 2.03333000E-001 0.00000000E+000
 2.48990000E-001 2.04667000E-001 0.00000000E+000
 2.48990000E-001 2.06000000E-001 0.00000000E+000
 2.48990000E-001 2.07333000E-001 0.00000000E+000
 2.48990000E-001 2.08667000E-001 0.00000000E+000
 2.48990000E-001 2.10000000E-001 0.00000000E+000
 2.52500000E-001 2.10000000E-001 0.00000000E+000
 2.56010000E-001 2.10000000E-001 0.00000000E+000
 2.59520000E-001 2.10000000E-001 0.00000000E+000
 2.63030000E-001 2.10000000E-001 0.00000000E+000
 2.66540000E-001 2.10000000E-001 0.00000000E+000
 2.70050000E-001 2.10000000E-001 0.00000000E+000
 2.73560000E-001 2.10000000E-001 0.00000000E+000
 2.77071000E-001 2.10000000E-001 0.00000000E+000
 2.80581000E-001 2.10000000E-001 0.00000000E+000
 2.84091000E-001 2.10000000E-001 0.00000000E+000
 2.87601000E-001 2.10000000E-001 0.00000000E+000
 2.91111000E-001 2.10000000E-001 0.00000000E+000
 2.94621000E-001 2.10000000E-001 0.00000000E+000
 2.98131000E-001 2.10000000E-001 0.00000000E+000
 3.01641000E-001 2.10000000E-001 0.00000000E+000
 3.05151000E-001 2.10000000E-001 0.00000000E+000
 3.08661000E-001 2.10000000E-001 0.00000000E+000
 3.12172000E-001 2.10000000E-001 0.00000000E+000
 3.15682000E-001 2.10000000E-001 0.00000000E+000
 3.19192000E-001 2.10000000E-001 0.00000000E+000
 3.22702000E-001 2.10000000E-001 0.00000000E+000
 3.26212000E-001 2.10000000E-001 0.00000000E+000
 3.29722000E-001 2.10000000E-001 0.00000000E+000
 3.33232000E-001 2.10000000E-001 0.00000000E+000
 3.36742000E-001 2.10000000E-001 0.00000000E+000
 3.40252000E-001 2.10000000E-001 0.00000000E+000
 3.43763000E-001 2.10000000E-001 0.00000000E+000
 3.47273000E-001 2.10000000E-001 0.00000000E+000
 3.50783000E-001 2.10000000E-001 0.00000000E+000
 3.54293000E-001 2.10000000E-001 0.00000000E+000
 3.57803000E-001 2.10000000E-001 0.00000000E+000
 3.61313000E-001 2.10000000E-001 0.00000000E+000
 3.64823000E-001 2.10000000E-001 0.00000000E+000
 3.68333000E-001 2.10000000E-001 0.00000000E+000
 3.71843000E-001 2.10000000E-001 0.00000000E+000
 3.75353000E-001 2.10000000E-001 0.00000000E+000
 3.78864000E-001 2.10000000E-001 0.00000000E+000
 3.82374000E-001 2.10000000E-001 0.00000000E+000
 3.85884000E-001 2.10000000E-001 0.00000000E+000
 3.89394000E-001 2.10000000E-001 0.00000000E+000
 3.92904000E-001 2.10000000E-001 0.00000000E+000
 3.96414000E-001 2.10000000E-001 0.00000000E+000
 3.99924000E-001 2.10000000E-001 0.00000000E+000
 4.03434000E-001 2.10000000E-001 0.00000000E+000
 4.06944000E-001 2.10000000E-001 0.00000000E+000
 4.10455000E-001 2.10000000E-001 0.00000000E+000
 4.13965000E-001 2.10000000E-001 0.00000000E+000
 4.17475000E-001 2.10000000E-001 0.00000000E+000
 4.20985000E-001 2.10000000E-001 0.00000000E+000
 4.24495000E-001 2.10000000E-001 0.00000000E+000
 4.28005000E-001 2.10000000E-001 0.00000000E+000
 4.31515000E-001 2.10000000E-001 0.00000000E+000
 4.35025000E-001 2.10000000E-001 0.00000000E+000
 4.38535000E-001 2.10000000E-001 0.00000000E+000
 4.42045000E-001 2.10000000E-001 0.00000000E+000
 4.45556000E-001 2.10000000E-001 0.00000000E+000
 4.49066000E-001 2.10000000E-001 0.00000000E+000
 4.52576000E-001 2.10000000E-001 0.00000000E+000
 4.56086000E-001 2.10000000E-001 0.00000000E+000
 4.59596000E-001 2.10000000E-001 0.00000000E+000
 4.63106000E-001 2.10000000E-001 0.00000000E+000
 4.66616000E-001 2.10000000E-001 0.00000000E+000
 4.70126000E-001 2.10000000E-001 0.00000000E+000
 4.73636000E-001 2.10000000E-001 0.00000000E+000
 4.77146000E-001 2.10000000E-001 0.00000000E+000
 4.80657000E-001 2.10000000E-001 0.00000000E+000
 4.84167000E-001 2.10000000E-001 0.00000000E+000
 4.87677000E-001 2.10000000E-001 0.00000000E+000
 4.91187000E-001 2.10000000E-001 0.00000000E+000
 4.94697000E-001 2.10000000E-001 0.00000000E+000
[...]
POINT_DATA 3232
VECTORS DISP double
 -3.3461700E-004 -1.1653100E-002  4.8598000E-005
 -5.8025700E-004 -1.1631700E-002  4.8466900E-005
 -8.2858900E-004 -1.1608100E-002  4.8072400E-005
 -1.0752800E-003 -1.1585100E-002  4.7452800E-005
 -1.3226800E-003 -1.1561800E-002  4.6652900E-005
 -1.5695800E-003 -1.1538700E-002  4.5703200E-005
 -1.8166700E-003 -1.1515500E-002  4.4646300E-005
 -2.0636100E-003 -1.1492400E-002  4.3523400E-005
 -2.3106500E-003 -1.1469300E-002  4.2382000E-005
 -2.5575800E-003 -1.1446200E-002  4.1268100E-005
 -2.8046300E-003 -1.1423200E-002  4.0227200E-005
 -3.0516200E-003 -1.1400200E-002  3.9302700E-005
 -3.2987300E-003 -1.1377200E-002  3.8534500E-005
 -3.5457300E-003 -1.1354200E-002  3.7955000E-005
 -3.7930800E-003 -1.1331200E-002  3.7593700E-005
 -4.0398100E-003 -1.1308100E-002  3.7472000E-005
 -3.9793700E-003 -1.0658000E-002  3.7358300E-005
 -3.9182900E-003 -1.0007300E-002  3.7014200E-005
 -3.8574400E-003 -9.3571200E-003  3.6437100E-005
 -3.7960800E-003 -8.7066700E-003  3.5619500E-005
 -3.7344800E-003 -8.0567600E-003  3.4551000E-005
 -3.6722500E-003 -7.4069400E-003  3.3223900E-005
 -3.6094500E-003 -6.7580000E-003  3.1630900E-005
 -3.5457900E-003 -6.1097400E-003  2.9768700E-005
 -3.4813100E-003 -5.4630400E-003  2.7636200E-005
 -3.4157800E-003 -4.8178800E-003  2.5235500E-005
 -3.3492300E-003 -4.1752100E-003  2.2572800E-005
 -3.2814800E-003 -3.5352200E-003  1.9656200E-005
 -3.2125800E-003 -2.8988900E-003  1.6498200E-005
 -3.1424100E-003 -2.2666400E-003  1.3113200E-005
 -3.0710400E-003 -1.6394100E-003  9.5191300E-006
 -2.9983900E-003 -1.0178900E-003  5.7361500E-006
 -2.9245700E-003 -4.0293200E-004  1.7866700E-006
 -2.8495500E-003  2.0455400E-004 -2.3043900E-006
 -2.7734400E-003  8.0377200E-004 -6.5111300E-006
 -2.6962900E-003  1.3936700E-003 -1.0805200E-005
 -2.6182000E-003  1.9735000E-003 -1.5158200E-005
 -2.5392800E-003  2.5421400E-003 -1.9540000E-005
 -2.4596200E-003  3.0988200E-003 -2.3920900E-005
 -2.3793700E-003  3.6425100E-003 -2.8270200E-005
 -2.2986300E-003  4.1723700E-003 -3.2558300E-005
 -2.2175700E-003  4.6874700E-003 -3.6755800E-005
 -2.1363000E-003  5.1869300E-003 -4.0834100E-005
 -2.0549600E-003  5.6700000E-003 -4.4766300E-005
 -1.9736900E-003  6.1357600E-003 -4.8526000E-005
 -1.8926200E-003  6.5836000E-003 -5.2089800E-005
 -1.8118900E-003  7.0126800E-003 -5.5434800E-005
 -1.7316000E-003  7.4224600E-003 -5.8541500E-005
 -1.6518800E-003  7.8122300E-003 -6.1391400E-005
 -1.5728000E-003  8.1815300E-003 -6.3969200E-005
 -1.4945100E-003  8.5298000E-003 -6.6261400E-005
 -1.4170500E-003  8.8566100E-003 -6.8257200E-005
 -1.3405100E-003  9.1616400E-003 -6.9947900E-005
 -1.2649500E-003  9.4444600E-003 -7.1327000E-005
 -1.1904200E-003  9.7049600E-003 -7.2390900E-005
 -1.1169800E-003  9.9427600E-003 -7.3136900E-005
 -1.0446400E-003  1.0157900E-002 -7.3565800E-005
 -9.7344000E-004  1.0350100E-002 -7.3678800E-005
 -9.0338300E-004  1.0519500E-002 -7.3479900E-005
 -8.3450400E-004  1.0666100E-002 -7.2973900E-005
 -7.6677300E-004  1.0789800E-002 -7.2167600E-005
 -7.0022300E-004  1.0891000E-002 -7.1068500E-005
 -6.3481800E-004  1.0969600E-002 -6.9685400E-005
 -5.7057400E-004  1.1026100E-002 -6.8028200E-005
 -5.0746800E-004  1.1060400E-002 -6.6107000E-005
 -4.4549000E-004  1.1073300E-002 -6.3933600E-005
 -3.8464800E-004  1.1064700E-002 -6.1518500E-005
 -3.2489900E-004  1.1035300E-002 -5.8874800E-005
 -2.6629200E-004  1.0985300E-002 -5.6013700E-005
 -2.0875400E-004  1.0915400E-002 -5.2948200E-005
 -1.5237400E-004  1.0826000E-002 -4.9690100E-005
 -9.7063500E-005  1.0717600E-002 -4.6252200E-005
 -4.2940600E-005  1.0590900E-002 -4.2646600E-005
  1.0083600E-005  1.0446300E-002 -3.8885100E-005
  6.1873100E-005  1.0284800E-002 -3.4980200E-005
  1.1249700E-004  1.0106500E-002 -3.0942800E-005
  1.6182000E-004  9.9127300E-003 -2.6785100E-005
  2.0987100E-004  9.7036100E-003 -2.2517300E-005
  2.5652600E-004  9.4804500E-003 -1.8150900E-005
  3.0177500E-004  9.2435100E-003 -1.3695700E-005
  3.4549200E-004  8.9940200E-003 -9.1621000E-006
  3.8764400E-004  8.7324700E-003 -4.5599800E-006
  4.2808300E-004  8.4599200E-003  1.0147200E-007
  4.6678300E-004  8.1771000E-003  4.8121800E-006
  5.0353700E-004  7.8849900E-003  9.5641200E-006
  5.3836800E-004  7.5844400E-003  1.4346700E-005
  5.7096900E-004  7.2764500E-003  1.9152600E-005
  6.0145600E-004  6.9618400E-003  2.3971000E-005
  6.2938800E-004  6.6418600E-003  2.8794100E-005
  6.5500000E-004  6.3170400E-003  3.3610700E-005
  6.7770600E-004  5.9891000E-003  3.8411900E-005
  6.9786800E-004  5.6581300E-003  4.3185500E-005
  7.1476200E-004  5.3264300E-003  4.7919700E-005
  7.2887000E-004  4.9935400E-003  5.2600400E-005
  7.3934800E-004  4.6624200E-003  5.7211900E-005
  7.4678300E-004  4.3320400E-003  6.1735900E-005
  7.5024000E-004  4.0059900E-003  6.6150400E-005
  7.5038600E-004  3.6827100E-003  7.0429600E-005
  7.4622800E-004  3.3664100E-003  7.4542800E-005
  7.3849400E-004  3.0550000E-003  7.8451100E-005
  7.2616400E-004  2.7533200E-003  8.2110400E-005
  7.0999700E-004  2.4586700E-003  8.5461100E-005
  6.8900700E-004  2.1766900E-003  8.8437700E-005
  6.6390100E-004  1.9037900E-003  9.0948700E-005
  6.3387800E-004  1.6468700E-003  9.2895000E-005
  5.9937500E-004  1.4008100E-003  9.4135800E-005
  5.6012000E-004  1.1745500E-003  9.4518800E-005
  5.1579300E-004  9.6044000E-004  9.3826200E-005
  4.6737800E-004  7.7078300E-004  9.1823200E-005
  4.1275800E-004  5.9369300E-004  8.8166500E-005
  3.5570000E-004  4.4706500E-004  8.2493100E-005
  2.9005200E-004  3.1175700E-004  7.4241300E-005
  2.2601100E-004  2.1598600E-004  6.2858600E-005
  1.4885400E-004  1.2524600E-004  4.7381700E-005
  8.6914400E-005  8.9858200E-005  2.7161700E-005
  0.0000000E+000  0.0000000E+000  0.0000000E+000
  0.0000000E+000  0.0000000E+000  0.0000000E+000
  0.0000000E+000  0.0000000E+000  0.0000000E+000
  0.0000000E+000  0.0000000E+000  0.0000000E+000
  0.0000000E+000  0.0000000E+000  0.0000000E+000
  0.0000000E+000  0.0000000E+000  0.0000000E+000
  0.0000000E+000  0.0000000E+000  0.0000000E+000
  0.0000000E+000  0.0000000E+000  0.0000000E+000
  0.0000000E+000  0.0000000E+000  0.0000000E+000
  0.0000000E+000  0.0000000E+000  0.0000000E+000
  0.0000000E+000  0.0000000E+000  0.0000000E+000
  0.0000000E+000  0.0000000E+000  0.0000000E+000
  0.0000000E+000  0.0000000E+000  0.0000000E+000
  0.0000000E+000  0.0000000E+000  0.0000000E+000
  0.0000000E+000  0.0000000E+000  0.0000000E+000
  0.0000000E+000  0.0000000E+000  0.0000000E+000
 -9.2600800E-005  9.3620500E-005 -2.1332800E-005
 -1.5513600E-004  1.2596200E-004 -3.5920600E-005
 -2.3728200E-004  2.1466300E-004 -4.5929000E-005
 -3.0568900E-004  3.0595200E-004 -5.1949600E-005
 -3.7811300E-004  4.3768600E-004 -5.4954400E-005
 -4.4286800E-004  5.7859400E-004 -5.5496700E-005
 -5.0732200E-004  7.5127100E-004 -5.4150400E-005
 -5.6713900E-004  9.3448200E-004 -5.1288900E-005
 -6.2499000E-004  1.1438000E-003 -4.7265400E-005
 -6.7958900E-004  1.3634400E-003 -4.2326700E-005
 -7.3149200E-004  1.6046800E-003 -3.6698000E-005
 -7.8076400E-004  1.8553400E-003 -3.0542400E-005
 -8.2701400E-004  2.1236200E-003 -2.4006100E-005
 -8.7087200E-004  2.4001100E-003 -1.7196400E-005
 -9.1155900E-004  2.6905900E-003 -1.0209300E-005
 -9.4989000E-004  2.9878500E-003 -3.1147400E-006
 -9.8497700E-004  3.2957300E-003  4.0234700E-006
 -1.0176300E-003  3.6088200E-003  1.1160700E-005
 -1.0470000E-003  3.9294400E-003  1.8253800E-005
 -1.0737800E-003  4.2535100E-003  2.5275200E-005
 -1.0972600E-003  4.5822900E-003  3.2195400E-005
 -1.1179800E-003  4.9126000E-003  3.8997900E-005
 -1.1353700E-003  5.2450900E-003  4.5663200E-005
 -1.1498200E-003  5.5770500E-003  5.2180900E-005
 -1.1609400E-003  5.9088800E-003  5.8539200E-005
 -1.1689400E-003  6.2380400E-003  6.4731300E-005
 -1.1735800E-003  6.5649300E-003  7.0750500E-005
 -1.1749900E-003  6.8870200E-003  7.6592400E-005
 -1.1730100E-003  7.2047500E-003  8.2254100E-005
 -1.1677300E-003  7.5156600E-003  8.7732100E-005
 -1.1590300E-003  7.8201600E-003  9.3026200E-005
 -1.1470200E-003  8.1159400E-003  9.8133800E-005
 -1.1315600E-003  8.4032300E-003  1.0305600E-004
 -1.1128400E-003  8.6801000E-003  1.0779000E-004
 -1.0907000E-003  8.9463900E-003  1.1233900E-004
 -1.0653600E-003  9.2006700E-003  1.1670100E-004
 -1.0366900E-003  9.4423600E-003  1.2087500E-004
 -1.0049300E-003  9.6705200E-003  1.2486400E-004
 -9.6999000E-004  9.8842100E-003  1.2866500E-004
 -9.3210200E-004  1.0082900E-002  1.3228000E-004
 -8.9126200E-004  1.0265400E-002  1.3570600E-004
 -8.4765900E-004  1.0431400E-002  1.3894500E-004
 -8.0139000E-004  1.0579700E-002  1.4199300E-004
 -7.5260900E-004  1.0710100E-002  1.4485000E-004
 -7.0149900E-004  1.0821600E-002  1.4751400E-004
 -6.4820000E-004  1.0913500E-002  1.4998200E-004
 -5.9295300E-004  1.0985600E-002  1.5225200E-004
 -5.3591900E-004  1.1036900E-002  1.5432000E-004
 -4.7735500E-004  1.1067300E-002  1.5618300E-004
 -4.1748200E-004  1.1075800E-002  1.5783500E-004
 -3.5654100E-004  1.1062500E-002  1.5927500E-004
 -2.9482600E-004  1.1026500E-002  1.6049400E-004
 -2.3255400E-004  1.0968000E-002  1.6149000E-004
 -1.7008500E-004  1.0886300E-002  1.6225500E-004
 -1.0762400E-004  1.0781300E-002  1.6278600E-004
 -4.5560400E-005  1.0652800E-002  1.6307600E-004
  1.5880500E-005  1.0500500E-002  1.6311900E-004
  7.6321000E-005  1.0324800E-002  1.6291200E-004
  1.3549100E-004  1.0125100E-002  1.6244700E-004
  1.9306300E-004  9.9020100E-003  1.6172200E-004
  2.4870700E-004  9.6550700E-003  1.6073200E-004
  3.0216500E-004  9.3850900E-003  1.5947600E-004
  3.5306400E-004  9.0917300E-003  1.5795100E-004
  4.0120000E-004  8.7757800E-003  1.5615900E-004
  4.4620600E-004  8.4373200E-003  1.5410100E-004
  4.8790000E-004  8.0769200E-003  1.5177900E-004
  5.2597200E-004  7.6951500E-003  1.4920000E-004
  5.6023600E-004  7.2923800E-003  1.4637100E-004
  5.9048400E-004  6.8696000E-003  1.4330200E-004
  6.1650800E-004  6.4270600E-003  1.4000500E-004
  6.3822000E-004  5.9660000E-003  1.3649400E-004
  6.5541100E-004  5.4867400E-003  1.3278600E-004
  6.6809200E-004  4.9905800E-003  1.2890100E-004
  6.7609300E-004  4.4780400E-003  1.2485900E-004
  6.7949100E-004  3.9502900E-003  1.2068400E-004
  6.7819100E-004  3.4081300E-003  1.1640200E-004
  6.7230900E-004  2.8525700E-003  1.1203900E-004
  6.6184800E-004  2.2846800E-003  1.0762400E-004
  6.4694500E-004  1.7052500E-003  1.0318500E-004
  6.2769800E-004  1.1155200E-003  9.8754200E-005
  6.0426800E-004  5.1615700E-004  9.4360800E-005
  5.7682700E-004 -9.1522200E-005  9.0035600E-005
  5.4556700E-004 -7.0700100E-004  8.5808900E-005
  5.1071300E-004 -1.3289100E-003  8.1709400E-005
  4.7248100E-004 -1.9569200E-003  7.7765700E-005
  4.3113800E-004 -2.5896000E-003  7.4003400E-005
  3.8690900E-004 -3.2268900E-003  7.0447700E-005
  3.4010100E-004 -3.8672400E-003  6.7119700E-005
  2.9091600E-004 -4.5109900E-003  6.4039300E-005
  2.3970500E-004 -5.1563600E-003  6.1222100E-005
  1.8662800E-004 -5.8042100E-003  5.8681800E-005
  1.3205900E-004 -6.4524800E-003  5.6426800E-005
  7.6125500E-005 -7.1026100E-003  5.4464200E-005
  1.9168100E-005 -7.7521300E-003  5.2794300E-005
 -3.8659200E-005 -8.4033400E-003  5.1418300E-005
 -9.7178500E-005 -9.0529300E-003  5.0327300E-005
 -1.5601600E-004 -9.7046100E-003  4.9518100E-005
 -2.1549000E-004 -1.0353400E-002  4.8972000E-005
 -2.7432800E-004 -1.1005800E-002  4.8676800E-005
 -5.2180400E-004 -1.0980900E-002  4.8546400E-005
 -4.6208500E-004 -1.0331200E-002  4.8835200E-005
 -4.0293700E-004 -9.6802000E-003  4.9370300E-005
 -3.4398100E-004 -9.0301700E-003  5.0161100E-005
 -2.8532200E-004 -8.3790100E-003  5.1225500E-005
 -2.2741600E-004 -7.7288800E-003  5.2568500E-005
 -1.7005000E-004 -7.0781700E-003  5.4197300E-005
 -1.1383200E-004 -6.4287600E-003  5.6111900E-005
 -5.8568700E-005 -5.7795500E-003  5.8311200E-005
 -4.8586300E-006 -5.1321900E-003  6.0788900E-005
  4.7409100E-005 -4.4860500E-003  6.3536100E-005
  9.7683900E-005 -3.8426300E-003  6.6540000E-005
  1.4599800E-004 -3.2016800E-003  6.9784800E-005
  1.9186400E-004 -2.5646100E-003  7.3251700E-005
  2.3524500E-004 -1.9314800E-003  7.6919300E-005
  2.7573000E-004 -1.3036400E-003  8.0763700E-005
  3.1322900E-004 -6.8142300E-004  8.4759400E-005
  3.4740900E-004 -6.6114600E-005  8.8878900E-005
  3.7815500E-004  5.4175000E-004  9.3093900E-005
  4.0520500E-004  1.1409200E-003  9.7374900E-005
  4.2845200E-004  1.7306900E-003  1.0169200E-004
  4.4768900E-004  2.3098900E-003  1.0601600E-004
  4.6285100E-004  2.8776900E-003  1.1031800E-004
  4.7378000E-004  3.4330000E-003  1.1456800E-004
  4.8046800E-004  3.9748900E-003  1.1873900E-004
  4.8280900E-004  4.5024000E-003  1.2280500E-004
  4.8084800E-004  5.0145100E-003  1.2674200E-004
  4.7455600E-004  5.5104400E-003  1.3052600E-004
  4.6400700E-004  5.9891200E-003  1.3413600E-004
  4.4927400E-004  6.4499200E-003  1.3755500E-004
  4.3043300E-004  6.8918200E-003  1.4076600E-004
  4.0767700E-004  7.3142900E-003  1.4375500E-004
  3.8107100E-004  7.7164400E-003  1.4651100E-004
  3.5091100E-004  8.0977700E-003  1.4902300E-004
  3.1727200E-004  8.4576400E-003  1.5128500E-004
  2.8050900E-004  8.7955300E-003  1.5329100E-004
  2.4073700E-004  9.1110800E-003  1.5503800E-004
  1.9832000E-004  9.4037400E-003  1.5652600E-004
  1.5344400E-004  9.6734400E-003  1.5775200E-004
  1.0643200E-004  9.9196500E-003  1.5871900E-004
  5.7564900E-005  1.0142500E-002  1.5943000E-004
  7.0945800E-006  1.0341500E-002  1.5988800E-004
 -4.4611700E-005  1.0517000E-002  1.6009600E-004
 -9.7364900E-005  1.0668700E-002  1.6006000E-004
 -1.5075200E-004  1.0796800E-002  1.5978500E-004
 -2.0461600E-004  1.0901500E-002  1.5927600E-004
 -2.5854800E-004  1.0982800E-002  1.5853800E-004
 -3.1238600E-004  1.1041200E-002  1.5757700E-004
 -3.6577700E-004  1.1076700E-002  1.5639800E-004
 -4.1851700E-004  1.1089900E-002  1.5500600E-004
 -4.7034600E-004  1.1080900E-002  1.5340600E-004
 -5.2100500E-004  1.1050500E-002  1.5160200E-004
 -5.7033700E-004  1.0998800E-002  1.4959800E-004
 -6.1803700E-004  1.0926700E-002  1.4739700E-004
 -6.6403100E-004  1.0834400E-002  1.4500200E-004
 -7.0800500E-004  1.0722800E-002  1.4241700E-004
 -7.4993000E-004  1.0592300E-002  1.3964300E-004
 -7.8952400E-004  1.0443700E-002  1.3668200E-004
 -8.2676400E-004  1.0277700E-002  1.3353500E-004
 -8.6144200E-004  1.0094900E-002  1.3020400E-004
 -8.9350000E-004  9.8961400E-003  1.2668900E-004
 -9.2283200E-004  9.6821900E-003  1.2299100E-004
 -9.4933400E-004  9.4538500E-003  1.1910900E-004
 -9.7299600E-004  9.2120100E-003  1.1504500E-004
 -9.9368300E-004  8.9573500E-003  1.1079600E-004
 -1.0114500E-003  8.6910500E-003  1.0636400E-004
 -1.0261700E-003  8.4135700E-003  1.0174900E-004
 -1.0379200E-003  8.1263800E-003  9.6949800E-005
 -1.0466100E-003  7.8297500E-003  9.1967100E-005
 -1.0523000E-003  7.5254400E-003  8.6801200E-005
 -1.0549800E-003  7.2135000E-003  8.1453200E-005
 -1.0546600E-003  6.8959400E-003  7.5924500E-005
 -1.0514300E-003  6.5726900E-003  7.0217500E-005
 -1.0452200E-003  6.2459100E-003  6.4335400E-005
 -1.0362100E-003  5.9154700E-003  5.8282500E-005
 -1.0242800E-003  5.5836900E-003  5.2064600E-005
 -1.0096700E-003  5.2502900E-003  4.5689500E-005
 -9.9225100E-004  4.9178500E-003  3.9167000E-005
 -9.7223600E-004  4.5858400E-003  3.2509500E-005
 -9.4957500E-004  4.2572200E-003  2.5733200E-005
 -9.2437100E-004  3.9310400E-003  1.8857500E-005
 -8.9671000E-004  3.6109000E-003  1.1907800E-005
 -8.6652600E-004  3.2951000E-003  4.9145100E-006
 -8.3409500E-004  2.9882000E-003 -2.0837400E-006
 -7.9910400E-004  2.6874200E-003 -9.0395900E-006
 -7.6211100E-004  2.3986600E-003 -1.5894400E-005
 -7.2241300E-004  2.1176400E-003 -2.2575700E-005
 -6.8104400E-004  1.8520500E-003 -2.8994100E-005
 -6.3661500E-004  1.5956200E-003 -3.5039100E-005
 -5.9104700E-004  1.3583600E-003 -4.0574700E-005
 -5.4166100E-004  1.1313700E-003 -4.5432200E-005
 -4.9211700E-004  9.2779500E-004 -4.9403700E-005
 -4.3720700E-004  7.3508400E-004 -5.2232000E-005
 -3.8408300E-004  5.7076000E-004 -5.3595000E-005
 -3.2248300E-004  4.1709100E-004 -5.3098500E-005
 -2.6668300E-004  2.9794600E-004 -5.0232100E-005
 -1.9633200E-004  1.8854500E-004 -4.4403100E-005
 -1.4079600E-004  1.2022700E-004 -3.4787100E-005
 -6.0083700E-005  6.1076300E-005 -2.0710300E-005
 -7.6813000E-004 -1.0957800E-002  4.8158200E-005
 -7.0925700E-004 -1.0307600E-002  4.8435700E-005
 -6.4961500E-004 -9.6570700E-003  4.8936200E-005
 -5.9067900E-004 -9.0063700E-003  4.9674300E-005
 -5.3191800E-004 -8.3557000E-003  5.0662800E-005
 -4.7364700E-004 -7.7049000E-003  5.1911000E-005
 -4.1611100E-004 -7.0546000E-003  5.3422700E-005
 -3.5924400E-004 -6.4045800E-003  5.5200300E-005
 -3.0353700E-004 -5.7556900E-003  5.7241100E-005
 -2.4885700E-004 -5.1078000E-003  5.9540100E-005
 -1.9574700E-004 -4.4619000E-003  6.2088500E-005
 -1.4410300E-004 -3.8180500E-003  6.4874400E-005
 -9.4449500E-005 -3.1773000E-003  6.7883000E-005
 -4.6735500E-005 -2.5399000E-003  7.1096800E-005
 -1.4343100E-006 -1.9069500E-003  7.4495700E-005
  4.1450300E-005 -1.2789000E-003  7.8057700E-005
  8.1511900E-005 -6.5686300E-004  8.1758700E-005
  1.1870700E-004 -4.1451500E-005  8.5573500E-005
  1.5269700E-004  5.6619600E-004  8.9475500E-005
  1.8342500E-004  1.1653400E-003  9.3437600E-005
  2.1061300E-004  1.7548600E-003  9.7432400E-005
  2.3422400E-004  2.3339100E-003  1.0143200E-004
  2.5402300E-004  2.9014100E-003  1.0541000E-004
  2.7002300E-004  3.4564400E-003  1.0934000E-004
  2.8203200E-004  3.9980000E-003  1.1319500E-004
  2.9011400E-004  4.5251100E-003  1.1695300E-004
  2.9413800E-004  5.0368500E-003  1.2059000E-004
  2.9420300E-004  5.5322800E-003  1.2408600E-004
  2.9027000E-004  6.0105500E-003  1.2742200E-004
  2.8243700E-004  6.4707900E-003  1.3058000E-004
  2.7079400E-004  6.9122300E-003  1.3354600E-004
  2.5540600E-004  7.3341100E-003  1.3630800E-004
  2.3650000E-004  7.7357500E-003  1.3885400E-004
  2.1411200E-004  8.1165100E-003  1.4117600E-004
  1.8857300E-004  8.4758200E-003  1.4326900E-004
  1.5992200E-004  8.8131900E-003  1.4512600E-004
  1.2853800E-004  9.1281400E-003  1.4674600E-004
  9.4509400E-005  9.4203400E-003  1.4812600E-004
  5.8194900E-005  9.6894400E-003  1.4926800E-004
  1.9778200E-005  9.9352300E-003  1.5017200E-004
 -2.0456600E-005  1.0157500E-002  1.5084100E-004
 -6.2210100E-005  1.0356200E-002  1.5127900E-004
 -1.0529300E-004  1.0531100E-002  1.5148800E-004
 -1.4930900E-004  1.0682500E-002  1.5147300E-004
 -1.9414200E-004  1.0810200E-002  1.5123900E-004
 -2.3935600E-004  1.0914500E-002  1.5079000E-004
 -2.8485600E-004  1.0995600E-002  1.5013200E-004
 -3.3023300E-004  1.1053500E-002  1.4927000E-004
 -3.7536000E-004  1.1088800E-002  1.4820700E-004
 -4.1991900E-004  1.1101700E-002  1.4694800E-004
 -4.6371100E-004  1.1092600E-002  1.4549800E-004
 -5.0653700E-004  1.1061900E-002  1.4386000E-004
 -5.4812200E-004  1.1010200E-002  1.4203600E-004
 -5.8838300E-004  1.0937800E-002  1.4003100E-004
 -6.2700000E-004  1.0845500E-002  1.3784700E-004
 -6.6395900E-004  1.0733700E-002  1.3548500E-004
 -6.9895500E-004  1.0603100E-002  1.3294700E-004
 -7.3198300E-004  1.0454400E-002  1.3023500E-004
 -7.6281400E-004  1.0288300E-002  1.2734900E-004
 -7.9139800E-004  1.0105400E-002  1.2429000E-004
 -8.1762600E-004  9.9065300E-003  1.2105900E-004
 -8.4137300E-004  9.6924400E-003  1.1765400E-004
 -8.6266300E-004  9.4640400E-003  1.1407600E-004
 -8.8129900E-004  9.2219600E-003  1.1032500E-004
 -8.9741200E-004  8.9672900E-003  1.0640000E-004
 -9.1077200E-004  8.7006200E-003  1.0230000E-004
 -9.2156500E-004  8.4231700E-003  9.8024600E-005
 -9.2958500E-004  8.1354800E-003  9.3574200E-005
 -9.3500800E-004  7.8389200E-003  8.8948100E-005
 -9.3770400E-004  7.5339300E-003  8.4146600E-005
 -9.3779900E-004  7.2220800E-003  7.9170100E-005
 -9.3525600E-004  6.9036900E-003  7.4019900E-005
 -9.3014500E-004  6.5805300E-003  6.8697600E-005
 -9.2250100E-004  6.2527500E-003  6.3206300E-005
 -9.1237500E-004  5.9224000E-003  5.7549500E-005
 -8.9981100E-004  5.5894200E-003  5.1732600E-005
 -8.8491400E-004  5.2561400E-003  4.5762800E-005
 -8.6764300E-004  4.9222500E-003  3.9648700E-005