# vtk DataFile Version 3.0
MMH: CalculiX output 'object.frd' file to 'vtk' format
ASCII
DATASET UNSTRUCTURED_GRID
POINTS 3232 double
 6.00000000E-001 2.10000000E-001 0.00000000E+000
 6.00000000E-001 2.08667000E-001 0.00000000E+000
 6.00000000E-001 2.07333000E-001 0.00000000E+000
 6.00000000E-001 2.06000000E-001 0.00000000E+000
 6.00000000E-001 2.04667000E-001 0.00000000E+000
 6.00000000E-001 2.03333000E-001 0.00000000E+000
 6.00000000E-001 2.02000000E-001 0.00000000E+000
 6.00000000E-001 2.00667000E-001 0.00000000E+000
 6.00000000E-001 1.99333000E-001 0.00000000E+000
 6.00000000E-001 1.98000000E-001 0.00000000E+000
 6.00000000E-001 1.96667000E-001 0.00000000E+000
 6.00000000E-001 1.95333000E-001 0.00000000E+000
 6.00000000E-001 1.94000000E-001 0.00000000E+000
 6.00000000E-001 1.92667000E-001 0.00000000E+000
 6.00000000E-001 1.91333000E-001 0.00000000E+000
 6.00000000E-001 1.90000000E-001 0.00000000E+000
 5.96490000E-001 1.90000000E-001 0.00000000E+000
 5.92980000E-001 1.90000000E-001 0.00000000E+000
 5.89470000E-001 1.90000000E-001 0.00000000E+000
 5.85960000E-001 1.90000000E-001 0.00000000E+000
 5.82449000E-001 1.90000000E-001 0.00000000E+000
 5.78939000E-001 1.90000000E-001 0.00000000E+000
 5.75429000E-001 1.90000000E-001 0.00000000E+000
 5.71919000E-001 1.90000000E-001 0.00000000E+000
 5.68409000E-001 1.90000000E-001 0.00000000E+000
 5.64899000E-001 1.90000000E-001 0.00000000E+000
 5.61389000E-001 1.90000000E-001 0.00000000E+000
 5.57879000E-001 1.90000000E-001 0.00000000E+000
 5.54369000E-001 1.90000000E-001 0.00000000E+000
 5.50859000E-001 1.90000000E-001 0.00000000E+000
 5.47348000E-001 1.90000000E-001 0.00000000E+000
 5.43838000E-001 1.90000000E-001 0.00000000E+000
 5.40328000E-001 1.90000000E-001 0.00000000E+000
 5.36818000E-001 1.90000000E-001 0.00000000E+000
 5.33308000E-001 1.90000000E-001 0.00000000E+000
 5.29798000E-001 1.90000000E-001 0.00000000E+000
 5.26288000E-001 1.90000000E-001 0.00000000E+000
 5.22778000E-001 1.90000000E-001 0.00000000E+000
 5.19268000E-001 1.90000000E-001 0.00000000E+000
 5.15758000E-001 1.90000000E-001 0.00000000E+000
 5.12247000E-001 1.90000000E-001 0.00000000E+000
 5.08737000E-001 1.90000000E-001 0.00000000E+000
 5.05227000E-001 1.90000000E-001 0.00000000E+000
 5.01717000E-001 1.90000000E-001 0.00000000E+000
 4.98207000E-001 1.90000000E-001 0.00000000E+000
 4.94697000E-001 1.90000000E-001 0.00000000E+000
 4.91187000E-001 1.90000000E-001 0.00000000E+000
 4.87677000E-001 1.90000000E-001 0.00000000E+000
 4.84167000E-001 1.90000000E-001 0.00000000E+000
 4.80657000E-001 1.90000000E-001 0.00000000E+000
 4.77146000E-001 1.90000000E-001 0.00000000E+000
 4.73636000E-001 1.90000000E-001 0.00000000E+000
 4.70126000E-001 1.90000000E-001 0.00000000E+000
 4.66616000E-001 1.90000000E-001 0.00000000E+000
 4.63106000E-001 1.90000000E-001 0.00000000E+000
 4.59596000E-001 1.90000000E-001 0.00000000E+000
 4.56086000E-001 1.90000000E-001 0.00000000E+000
 4.52576000E-001 1.90000000E-001 0.00000000E+000
 4.49066000E-001 1.90000000E-001 0.00000000E+000
 4.45556000E-001 1.90000000E-001 0.00000000E+000
 4.42045000E-001 1.90000000E-001 0.00000000E+000
 4.38535000E-001 1.90000000E-001 0.00000000E+000
 4.35025000E-001 1.90000000E-001 0.00000000E+000
 4.31515000E-001 1.90000000E-001 0.00000000E+000
 4.28005000E-001 1.90000000E-001 0.00000000E+000
 4.24495000E-001 1.90000000E-001 0.00000000E+000
 4.20985000E-001 1.90000000E-001 0.00000000E+000
 4.17475000E-001 1.90000000E-001 0.00000000E+000
 4.13965000E-001 1.90000000E-001 0.00000000E+000
 4.10455000E-001 1.90000000E-001 0.00000000E+000
 4.06944000E-001 1.90000000E-001 0.00000000E+000
 4.03434000E-001 1.90000000E-001 0.00000000E+000
 3.99924000E-001 1.90000000E-001 0.00000000E+000
 3.96414000E-001 1.90000000E-001 0.00000000E+000
 3.92904000E-001 1.90000000E-001 0.00000000E+000
 3.89394000E-001 1.90000000E-001 0.00000000E+000
 3.85884000E-001 1.90000000E-001 0.00000000E+000
 3.82374000E-001 1.90000000E-001 0.00000000E+000
 3.78864000E-001 1.90000000E-001 0.00000000E+000
 3.75353000E-001 1.90000000E-001 0.00000000E+000
 3.71843000E-001 1.90000000E-001 0.00000000E+000
 3.68333000E-001 1.90000000E-001 0.00000000E+000
 3.64823000E-001 1.90000000E-001 0.00000000E+000
 3.61313000E-001 1.90000000E-001 0.00000000E+000
 3.57803000E-001 1.90000000E-001 0.00000000E+000
 3.54293000E-001 1.90000000E-001 0.00000000E+000
 3.50783000E-001 1.90000000E-001 0.00000000E+000
 3.47273000E-001 1.90000000E-001 0.00000000E+000
 3.43763000E-001 1.90000000E-001 0.00000000E+000
 3.40252000E-001 1.90000000E-001 0.00000000E+000
 3.36742000E-001 1.90000000E-001 0.00000000E+000
 3.33232000E-001 1.90000000E-001 0.00000000E+000
 3.29722000E-001 1.90000000E-001 0.00000000E+000
 3.26212000E-001 1.90000000E-001 0.00000000E+000
 3.22702000E-001 1.90000000E-001 0.00000000E+000
 3.19192000E-001 1.90000000E-001 0.00000000E+000
 3.15682000E-001 1.90000000E-001 0.00000000E+000
 3.12172000E-001 1.90000000E-001 0.00000000E+000
 3.08661000E-001 1.90000000E-001 0.00000000E+000
 3.05151000E-001 1.90000000E-001 0.00000000E+000
 3.01641000E-001 1.90000000E-001 0.00000000E+000
 2.98131000E-001 1.90000000E-001 0.00000000E+000
 2.94621000E-001 1.90000000E-001 0.00000000E+000
 2.91111000E-001 1.90000000E-001 0.00000000E+000
 2.87601000E-001 1.90000000E-001 0.00000000E+000
 2.84091000E-001 1.90000000E-001 0.00000000E+000
 2.80581000E-001 1.90000000E-001 0.00000000E+000
 2.77071000E-001 1.90000000E-001 0.00000000E+000
 2.73560000E-001 1.90000000E-001 0.00000000E+000
 2.70050000E-001 1.90000000E-001 0.00000000E+000
 2.66540000E-001 1.90000000E-001 0.00000000E+000
 2.63030000E-001 1.90000000E-001 0.00000000E+000
 2.59520000E-001 1.90000000E-001 0.00000000E+000
 2.56010000E-001 1.90000000E-001 0.00000000E+000
 2.52500000E-001 1.90000000E-001 0.00000000E+000
 2.48990000E-001 1.90000000E-001 0.00000000E+000
 2.48990000E-001 1.91333000E-001 0.00000000E+000
 2.48990000E-001 1.92667000E-001 0.00000000E+000
 2.48990000E-001 1.94000000E-001 0.00000000E+000
 2.48990000E-001 1.95333000E-001 0.00000000E+000
 2.48990000E-001 1.96667000E-001 0.00000000E+000
 2.48990000E-001 1.98000000E-001 0.00000000E+000
 2.48990000E-001 1.99333000E-001 0.00000000E+000
 2.48990000E-001 2.00667000E-001 0.00000000E+000
 2.48990000E-001 2.02000000E-001 0.00000000E+000
 2.48990000E-001 2.03333000E-001 0.00000000E+000
 2.48990000E-001 2.04667000E-001 0.00000000E+000
 2.48990000E-001 2.06000000E-001 0.00000000E+000
 2.48990000E-001 2.07333000E-001 0.00000000E+000
 2.48990000E-001 2.08667000E-001 0.00000000E+000
 2.48990000E-001 2.10000000E-001 0.00000000E+000
 2.52500000E-001 2.10000000E-001 0.00000000E+000
 2.56010000E-001 2.10000000E-001 0.00000000E+000
 2.59520000E-001 2.10000000E-001 0.00000000E+000
 2.63030000E-001 2.10000000E-001 0.00000000E+000
 2.66540000E-001 2.10000000E-001 0.00000000E+000
 2.70050000E-001 2.10000000E-001 0.00000000E+000
 2.73560000E-001 2.10000000E-001 0.00000000E+000
 2.77071000E-001 2.10000000E-001 0.00000000E+000
 2.80581000E-001 2.10000000E-001 0.00000000E+000
 2.84091000E-001 2.10000000E-001 0.00000000E+000
 2.87601000E-001 2.10000000E-001 0.00000000E+000
 2.91111000E-001 2.10000000E-001 0.00000000E+000
 2.94621000E-001 2.10000000E-001 0.00000000E+000
 2.98131000E-001 2.10000000E-001 0.00000000E+000
 3.01641000E-001 2.10000000E-001 0.00000000E+000
 3.05151000E-001 2.10000000E-001 0.00000000E+000
 3.08661000E-001 2.10000000E-001 0.00000000E+000
 3.12172000E-001 2.10000000E-001 0.00000000E+000
 3.15682000E-001 2.10000000E-001 0.00000000E+000
 3.19192000E-001 2.10000000E-001 0.00000000E+000
 3.22702000E-001 2.10000000E-001 0.00000000E+000
 3.26212000E-001 2.10000000E-001 0.00000000E+000
 3.29722000E-001 2.10000000E-001 0.00000000E+000
 3.33232000E-001 2.10000000E-001 0.00000000E+000
 3.36742000E-001 2.10000000E-001 0.00000000E+000
 3.40252000E-001 2.10000000E-001 0.00000000E+000
 3.43763000E-001 2.10000000E-001 0.00000000E+000
 3.47273000E-001 2.10000000E-001 0.00000000E+000
 3.50783000E-001 2.10000000E-001 0.00000000E+000
 3.54293000E-001 2.10000000E-001 0.00000000E+000
 3.57803000E-001 2.10000000E-001 0.00000000E+000
 3.61313000E-001 2.10000000E-001 0.00000000E+000
 3.64823000E-001 2.10000000E-001 0.00000000E+000
 3.68333000E-001 2.10000000E-001 0.00000000E+000
 3.71843000E-001 2.10000000E-001 0.00000000E+000
 3.75353000E-001 2.10000000E-001 0.00000000E+000
 3.78864000E-001 2.10000000E-001 0.00000000E+000
 3.82374000E-001 2.10000000E-001 0.00000000E+000
 3.85884000E-001 2.10000000E-001 0.00000000E+000
 3.89394000E-001 2.10000000E-001 0.00000000E+000
 3.92904000E-001 2.10000000E-001 0.00000000E+000
 3.96414000E-001 2.10000000E-001 0.00000000E+000
 3.99924000E-001 2.10000000E-001 0.00000000E+000
 4.03434000E-001 2.10000000E-001 0.00000000E+000
 4.06944000E-001 2.10000000E-001 0.00000000E+000
 4.10455000E-001 2.10000000E-001 0.00000000E+000
 4.13965000E-001 2.10000000E-001 0.00000000E+000
 4.17475000E-001 2.10000000E-001 0.00000000E+000
 4.20985000E-001 2.10000000E-001 0.00000000E+000
 4.24495000E-001 2.10000000E-001 0.00000000E+000
 4.28005000E-001 2.10000000E-001 0.00000000E+000
 4.31515000E-001 2.10000000E-001 0.00000000E+000
 4.35025000E-001 2.10000000E-001 0.00000000E+000
 4.38535000E-001 2.10000000E-001 0.00000000E+000
 4.42045000E-001 2.10000000E-001 0.00000000E+000
 4.45556000E-001 2.10000000E-001 0.00000000E+000
 4.49066000E-001 2.10000000E-001 0.00000000E+000
 4.52576000E-001 2.10000000E-001 0.00000000E+000
 4.56086000E-001 2.10000000E-001 0.00000000E+000
 4.59596000E-001 2.10000000E-001 0.00000000E+000
 4.63106000E-001 2.10000000E-001 0.00000000E+000
 4.66616000E-001 2.10000000E-001 0.00000000E+000
 4.70126000E-001 2.10000000E-001 0.00000000E+000
 4.73636000E-001 2.10000000E-001 0.00000000E+000
 4.77146000E-001 2.10000000E-001 0.00000000E+000
 4.80657000E-001 2.10000000E-001 0.00000000E+000
 4.84167000E-001 2.10000000E-001 0.00000000E+000
 4.87677000E-001 2.10000000E-001 0.00000000E+000
 4.91187000E-001 2.10000000E-001 0.00000000E+000
 4.94697000E-001 2.10000000E-001 0.00000000E+000
[...]
POINT_DATA 3232
VECTORS DISP double
 -3.3832600E-003  1.0828300E-002  4.5467900E-005
 -3.1610100E-003  1.0847100E-002  4.5578100E-005
 -2.9383800E-003  1.0865700E-002  4.5903500E-005
 -2.7159600E-003  1.0884300E-002  4.6424100E-005
 -2.4935000E-003  1.0902900E-002  4.7113800E-005
 -2.2711200E-003  1.0921500E-002  4.7943500E-005
 -2.0486900E-003  1.0940200E-002  4.8877800E-005
 -1.8263700E-003  1.0958800E-002  4.9877900E-005
 -1.6039400E-003  1.0977500E-002  5.0903200E-005
 -1.3816100E-003  1.0996300E-002  5.1912800E-005
 -1.1591200E-003  1.1015000E-002  5.2864300E-005
 -9.3684000E-004  1.1033800E-002  5.3721200E-005
 -7.1403700E-004  1.1052600E-002  5.4445000E-005
 -4.9197400E-004  1.1071200E-002  5.5008900E-005
 -2.6819600E-004  1.1090400E-002  5.5369900E-005
 -4.7256200E-005  1.1107300E-002  5.5489800E-005
  1.4238200E-006  1.0525000E-002  5.5554600E-005
  4.8534600E-005  9.9374200E-003  5.5812600E-005
  9.6397800E-005  9.3536700E-003  5.6301400E-005
  1.4360900E-004  8.7668600E-003  5.7033700E-005
  1.9060600E-004  8.1822800E-003  5.8029200E-005
  2.3696200E-004  7.5959500E-003  5.9291500E-005
  2.8257400E-004  7.0113600E-003  6.0830200E-005
  3.2727100E-004  6.4260100E-003  6.2643900E-005
  3.7076900E-004  5.8424900E-003  6.4733000E-005
  4.1294400E-004  5.2592100E-003  6.7090600E-005
  4.5347400E-004  4.6782600E-003  6.9708400E-005
  4.9220900E-004  4.0986800E-003  7.2573400E-005
  5.2885200E-004  3.5222600E-003  7.5670400E-005
  5.6321700E-004  2.9485400E-003  7.8980200E-005
  5.9504800E-004  2.3790600E-003  8.2482200E-005
  6.2414400E-004  1.8137800E-003  8.6152200E-005
  6.5028900E-004  1.2540700E-003  8.9965600E-005
  6.7328900E-004  7.0018000E-004  9.3894900E-005
  6.9296900E-004  1.5339700E-004  9.7912700E-005
  7.0916200E-004 -3.8585300E-004  1.0199000E-004
  7.2173900E-004 -9.1633900E-004  1.0609800E-004
  7.3056400E-004 -1.4375000E-003  1.1020800E-004
  7.3557400E-004 -1.9482000E-003  1.1429200E-004
  7.3665800E-004 -2.4477500E-003  1.1832100E-004
  7.3383400E-004 -2.9351700E-003  1.2227000E-004
  7.2701300E-004 -3.4096000E-003  1.2611400E-004
  7.1629800E-004 -3.8703200E-003  1.2982800E-004
  7.0163200E-004 -4.3162900E-003  1.3339200E-004
  6.8318000E-004 -4.7470600E-003  1.3678700E-004
  6.6094700E-004 -5.1615100E-003  1.3999400E-004
  6.3512500E-004 -5.5593700E-003  1.4300000E-004
  6.0580500E-004 -5.9395700E-003  1.4579000E-004
  5.7317300E-004 -6.3019000E-003  1.4835600E-004
  5.3742000E-004 -6.6455100E-003  1.5068800E-004
  4.9871200E-004 -6.9701100E-003  1.5278000E-004
  4.5732200E-004 -7.2752400E-003  1.5462800E-004
  4.1340800E-004 -7.5604100E-003  1.5623000E-004
  3.6728900E-004 -7.8255800E-003  1.5758500E-004
  3.1913700E-004 -8.0701100E-003  1.5869400E-004
  2.6926900E-004 -8.2943200E-003  1.5955900E-004
  2.1790400E-004 -8.4975100E-003  1.6018200E-004
  1.6531500E-004 -8.6801900E-003  1.6056900E-004
  1.1177700E-004 -8.8418200E-003  1.6072300E-004
  5.7506600E-005 -8.9828500E-003  1.6065100E-004
  2.8212600E-006 -9.1031100E-003  1.6035700E-004
 -5.2107900E-005 -9.2028300E-003  1.5984700E-004
 -1.0695400E-004 -9.2823000E-003  1.5912800E-004
 -1.6156500E-004 -9.3414800E-003  1.5820400E-004
 -2.1564100E-004 -9.3810600E-003  1.5708200E-004
 -2.6902200E-004 -9.4008500E-003  1.5576600E-004
 -3.2146800E-004 -9.4017700E-003  1.5426200E-004
 -3.7279100E-004 -9.3836400E-003  1.5257300E-004
 -4.2282200E-004 -9.3474200E-003  1.5070500E-004
 -4.7135500E-004 -9.2931300E-003  1.4866000E-004
 -5.1827000E-004 -9.2215600E-003  1.4644100E-004
 -5.6337300E-004 -9.1330900E-003  1.4405200E-004
 -6.0656300E-004 -9.0282600E-003  1.4149400E-004
 -6.4768900E-004 -8.9077800E-003  1.3876800E-004
 -6.8663600E-004 -8.7719800E-003  1.3587600E-004
 -7.2332800E-004 -8.6218400E-003  1.3281800E-004
 -7.5760900E-004 -8.4576100E-003  1.2959400E-004
 -7.8949100E-004 -8.2803100E-003  1.2620500E-004
 -8.1877400E-004 -8.0903600E-003  1.2265000E-004
 -8.4554600E-004 -7.8885800E-003  1.1892700E-004
 -8.6958500E-004 -7.6757500E-003  1.1503600E-004
 -8.9102000E-004 -7.4523500E-003  1.1097700E-004
 -9.0963900E-004 -7.2196100E-003  1.0674700E-004
 -9.2558400E-004 -6.9776200E-003  1.0234600E-004
 -9.3867200E-004 -6.7280600E-003  9.7772200E-005
 -9.4903700E-004 -6.4706600E-003  9.3024800E-005
 -9.5653700E-004 -6.2074700E-003  8.8104500E-005
 -9.6129400E-004 -5.9380300E-003  8.3009600E-005
 -9.6318900E-004 -5.6645300E-003  7.7742100E-005
 -9.6236300E-004 -5.3865000E-003  7.2302700E-005
 -9.5867400E-004 -5.1061600E-003  6.6693900E-005
 -9.5232900E-004 -4.8231400E-003  6.0919700E-005
 -9.4310500E-004 -4.5396100E-003  5.4984500E-005
 -9.3132800E-004 -4.2552500E-003  4.8897100E-005
 -9.1664500E-004 -3.9723300E-003  4.2664800E-005
 -8.9953200E-004 -3.6903700E-003  3.6302900E-005
 -8.7948100E-004 -3.4120500E-003  2.9824000E-005
 -8.5712400E-004 -3.1363500E-003  2.3252400E-005
 -8.3180100E-004 -2.8667300E-003  1.6610200E-005
 -8.0426800E-004 -2.6012500E-003  9.9335900E-006
 -7.7376200E-004 -2.3445800E-003  3.2596200E-006
 -7.4108200E-004 -2.0934200E-003 -3.3574900E-006
 -7.0546100E-004 -1.8540400E-003 -9.8583900E-006
 -6.6760400E-004 -1.6214200E-003 -1.6160800E-005
 -6.2691200E-004 -1.4038100E-003 -2.2172400E-005
 -5.8374400E-004 -1.1940400E-003 -2.7767200E-005
 -5.3801300E-004 -1.0028100E-003 -3.2803500E-005
 -4.8923800E-004 -8.2026600E-004 -3.7085800E-005
 -4.3853300E-004 -6.6026600E-004 -4.0399300E-005
 -3.8355700E-004 -5.0920400E-004 -4.2435600E-005
 -3.2810700E-004 -3.8571800E-004 -4.2868400E-005
 -2.6573200E-004 -2.7006300E-004 -4.1195500E-005
 -2.0665900E-004 -1.8967900E-004 -3.6932100E-005
 -1.3537400E-004 -1.1142000E-004 -2.9224800E-005
 -8.0942800E-005 -8.2515800E-005 -1.7551400E-005
  0.0000000E+000  0.0000000E+000  0.0000000E+000
  0.0000000E+000  0.0000000E+000  0.0000000E+000
  0.0000000E+000  0.0000000E+000  0.0000000E+000
  0.0000000E+000  0.0000000E+000  0.0000000E+000
  0.0000000E+000  0.0000000E+000  0.0000000E+000
  0.0000000E+000  0.0000000E+000  0.0000000E+000
  0.0000000E+000  0.0000000E+000  0.0000000E+000
  0.0000000E+000  0.0000000E+000  0.0000000E+000
  0.0000000E+000  0.0000000E+000  0.0000000E+000
  0.0000000E+000  0.0000000E+000  0.0000000E+000
  0.0000000E+000  0.0000000E+000  0.0000000E+000
  0.0000000E+000  0.0000000E+000  0.0000000E+000
  0.0000000E+000  0.0000000E+000  0.0000000E+000
  0.0000000E+000  0.0000000E+000  0.0000000E+000
  0.0000000E+000  0.0000000E+000  0.0000000E+000
  0.0000000E+000  0.0000000E+000  0.0000000E+000
  7.6742400E-005 -7.9383000E-005  2.4530800E-005
  1.3103900E-004 -1.1063600E-004  4.2933900E-005
  1.9874300E-004 -1.9038100E-004  5.7145400E-005
  2.5479000E-004 -2.7418300E-004  6.7736300E-005
  3.1225600E-004 -3.9248700E-004  7.5554800E-005
  3.6215500E-004 -5.2032300E-004  8.1088500E-005
  4.0994400E-004 -6.7461400E-004  8.4832900E-005
  4.5232300E-004 -8.3950100E-004  8.7109100E-005
  4.9117500E-004 -1.0255100E-003  8.8220800E-005
  5.2565500E-004 -1.2217200E-003  8.8375600E-005
  5.5605300E-004 -1.4349400E-003  8.7767100E-005
  5.8262100E-004 -1.6572200E-003  8.6530000E-005
  6.0498600E-004 -1.8931200E-003  8.4789600E-005
  6.2385300E-004 -2.1365100E-003  8.2634000E-005
  6.3861200E-004 -2.3906300E-003  8.0144700E-005
  6.5012300E-004 -2.6504600E-003  7.7380000E-005
  6.5773000E-004 -2.9184300E-003  7.4392900E-005
  6.6231600E-004 -3.1902400E-003  7.1222600E-005
  6.6325000E-004 -3.4678100E-003  6.7903700E-005
  6.6139000E-004 -3.7473700E-003  6.4463300E-005
  6.5615200E-004 -4.0304100E-003  6.0924100E-005
  6.4834500E-004 -4.3137000E-003  5.7305400E-005
  6.3744700E-004 -4.5982400E-003  5.3622700E-005
  6.2419200E-004 -4.8813900E-003  4.9889700E-005
  6.0814500E-004 -5.1636300E-003  4.6118000E-005
  5.8993300E-004 -5.4429400E-003  4.2317300E-005
  5.6922500E-004 -5.7192600E-003  3.8497400E-005
  5.4652800E-004 -5.9911500E-003  3.4665100E-005
  5.2162100E-004 -6.2581100E-003  3.0829400E-005
  4.9488000E-004 -6.5191300E-003  2.6995600E-005
  4.6619500E-004 -6.7734700E-003  2.3172300E-005
  4.3581800E-004 -7.0203300E-003  1.9364200E-005
  4.0372700E-004 -7.2589300E-003  1.5579500E-005
  3.7008200E-004 -7.4885000E-003  1.1823600E-005
  3.3490600E-004 -7.7084000E-003  8.1041000E-006
  2.9830900E-004 -7.9177100E-003  4.4274600E-006
  2.6032300E-004 -8.1160500E-003  8.0087100E-007
  2.2103700E-004 -8.3023200E-003 -2.7677400E-006
  1.8046300E-004 -8.4763800E-003 -6.2713100E-006
  1.3869800E-004 -8.6370200E-003 -9.7006100E-006
  9.5712000E-005 -8.7842200E-003 -1.3048300E-005
  5.1621500E-005 -8.9168000E-003 -1.6304100E-005
  6.3574100E-006 -9.0347200E-003 -1.9459600E-005
 -3.9955300E-005 -9.1369800E-003 -2.2504400E-005
 -8.7405900E-005 -9.2233900E-003 -2.5428600E-005
 -1.3587900E-004 -9.2932500E-003 -2.8221800E-005
 -1.8546200E-004 -9.3461400E-003 -3.0873000E-005
 -2.3606500E-004 -9.3816700E-003 -3.3371500E-005
 -2.8775500E-004 -9.3992700E-003 -3.5705500E-005
 -3.4048100E-004 -9.3987600E-003 -3.7864600E-005
 -3.9427500E-004 -9.3795100E-003 -3.9836500E-005
 -4.4912500E-004 -9.3414800E-003 -4.1611100E-005
 -5.0502800E-004 -9.2841200E-003 -4.3176500E-005
 -5.6200000E-004 -9.2073800E-003 -4.4522600E-005
 -6.2001200E-004 -9.1108800E-003 -4.5639100E-005
 -6.7909100E-004 -8.9945400E-003 -4.6516500E-005
 -7.3919000E-004 -8.8582000E-003 -4.7146300E-005
 -8.0033200E-004 -8.7017100E-003 -4.7520400E-005
 -8.6246300E-004 -8.5251400E-003 -4.7632700E-005
 -9.2558100E-004 -8.3283300E-003 -4.7477200E-005
 -9.8963600E-004 -8.1115100E-003 -4.7050800E-005
 -1.0545900E-003 -7.8746000E-003 -4.6350700E-005
 -1.1204100E-003 -7.6179000E-003 -4.5376700E-005
 -1.1870000E-003 -7.3415000E-003 -4.4129900E-005
 -1.2543300E-003 -7.0457400E-003 -4.2614100E-005
 -1.3223000E-003 -6.7308900E-003 -4.0834600E-005
 -1.3908400E-003 -6.3973000E-003 -3.8799000E-005
 -1.4598400E-003 -6.0454400E-003 -3.6517600E-005
 -1.5292200E-003 -5.6757000E-003 -3.4002100E-005
 -1.5988500E-003 -5.2887000E-003 -3.1267300E-005
 -1.6686300E-003 -4.8849000E-003 -2.8329300E-005
 -1.7384400E-003 -4.4650300E-003 -2.5207000E-005
 -1.8081500E-003 -4.0296300E-003 -2.1920400E-005
 -1.8776500E-003 -3.5795000E-003 -1.8492100E-005
 -1.9467900E-003 -3.1153200E-003 -1.4945400E-005
 -2.0154900E-003 -2.6378600E-003 -1.1305700E-005
 -2.0835800E-003 -2.1479500E-003 -7.5985900E-006
 -2.1509800E-003 -1.6463400E-003 -3.8509200E-006
 -2.2175700E-003 -1.1339500E-003 -9.0126900E-008
 -2.2832600E-003 -6.1150600E-004  3.6569300E-006
 -2.3479500E-003 -7.9969400E-005  7.3626600E-006
 -2.4115800E-003  4.5994800E-004  1.1001100E-005
 -2.4740900E-003  1.0073100E-003  1.4546100E-005
 -2.5354100E-003  1.5613900E-003  1.7973600E-005
 -2.5955500E-003  2.1213700E-003  2.1260600E-005
 -2.6544500E-003  2.6864500E-003  2.4386000E-005
 -2.7121800E-003  3.2560300E-003  2.7330800E-005
 -2.7686800E-003  3.8292600E-003  3.0078400E-005
 -2.8240800E-003  4.4057300E-003  3.2615000E-005
 -2.8783500E-003  4.9845800E-003  3.4929000E-005
 -2.9316600E-003  5.5656100E-003  3.7012500E-005
 -2.9840000E-003  6.1480000E-003  3.8860100E-005
 -3.0355700E-003  6.7317300E-003  4.0469800E-005
 -3.0863800E-003  7.3160500E-003  4.1842800E-005
 -3.1366700E-003  7.9011100E-003  4.2982900E-005
 -3.1864300E-003  8.4862500E-003  4.3897400E-005
 -3.2359500E-003  9.0718400E-003  4.4594100E-005
 -3.2851000E-003  9.6571700E-003  4.5083600E-005
 -3.3343700E-003  1.0243000E-002  4.5373200E-005
 -3.1118100E-003  1.0261400E-002  4.5485400E-005
 -3.0627500E-003  9.6758800E-003  4.5202600E-005
 -3.0135100E-003  9.0902300E-003  4.4724800E-005
 -2.9641000E-003  8.5047900E-003  4.4045300E-005
 -2.9143500E-003  7.9193300E-003  4.3154300E-005
 -2.8642300E-003  7.3343000E-003  4.2043900E-005
 -2.8135800E-003  6.7495900E-003  4.0707200E-005
 -2.7623500E-003  6.1657600E-003  3.9140400E-005
 -2.7104000E-003  5.5828800E-003  3.7342300E-005
 -2.6576900E-003  5.0016100E-003  3.5315000E-005
 -2.6041400E-003  4.4221600E-003  3.3063400E-005
 -2.5497000E-003  3.8452800E-003  3.0595500E-005
 -2.4943300E-003  3.2713600E-003  2.7922100E-005
 -2.4380200E-003  2.7012000E-003  2.5056800E-005
 -2.3807500E-003  2.1353300E-003  2.2015700E-005
 -2.3225400E-003  1.5745800E-003  1.8817300E-005
 -2.2634300E-003  1.0196400E-003  1.5481900E-005
 -2.2034300E-003  4.7133200E-004  1.2031900E-005
 -2.1426300E-003 -6.9530400E-005  8.4908500E-006
 -2.0810700E-003 -6.0214100E-004  4.8838800E-006
 -2.0188500E-003 -1.1256200E-003  1.2366400E-006
 -1.9560600E-003 -1.6391600E-003 -2.4244200E-006
 -1.8927700E-003 -2.1418900E-003 -6.0728000E-006
 -1.8291300E-003 -2.6329900E-003 -9.6819800E-006
 -1.7652100E-003 -3.1116300E-003 -1.3225800E-005
 -1.7011500E-003 -3.5770100E-003 -1.6679100E-005
 -1.6370400E-003 -4.0283500E-003 -2.0017400E-005
 -1.5730200E-003 -4.4649000E-003 -2.3217600E-005
 -1.5091700E-003 -4.8859900E-003 -2.6258100E-005
 -1.4456200E-003 -5.2909000E-003 -2.9118800E-005
 -1.3824600E-003 -5.6790600E-003 -3.1781700E-005
 -1.3197900E-003 -6.0498400E-003 -3.4230700E-005
 -1.2577100E-003 -6.4027600E-003 -3.6451600E-005
 -1.1962700E-003 -6.7373100E-003 -3.8432600E-005
 -1.1355800E-003 -7.0530900E-003 -4.0163900E-005
 -1.0756700E-003 -7.3497300E-003 -4.1637900E-005
 -1.0166200E-003 -7.6268800E-003 -4.2849300E-005
 -9.5845000E-004 -7.8843500E-003 -4.3794600E-005
 -9.0122400E-004 -8.1218500E-003 -4.4472400E-005
 -8.4495000E-004 -8.3393000E-003 -4.4883200E-005
 -7.8965800E-004 -8.5365400E-003 -4.5029100E-005
 -7.3536300E-004 -8.7135800E-003 -4.4913800E-005
 -6.8205500E-004 -8.8703700E-003 -4.4542700E-005
 -6.2976600E-004 -9.0069900E-003 -4.3922100E-005
 -5.7844900E-004 -9.1235200E-003 -4.3059500E-005
 -5.2814500E-004 -9.2201000E-003 -4.1963500E-005
 -4.7879200E-004 -9.2969300E-003 -4.0643400E-005
 -4.3042500E-004 -9.3541800E-003 -3.9109100E-005
 -3.8298700E-004 -9.3922000E-003 -3.7371000E-005
 -3.3649200E-004 -9.4111700E-003 -3.5439900E-005
 -2.9091200E-004 -9.4115500E-003 -3.3326700E-005
 -2.4622700E-004 -9.3935900E-003 -3.1042700E-005
 -2.0245000E-004 -9.3577600E-003 -2.8598700E-005
 -1.5953100E-004 -9.3044600E-003 -2.6006000E-005
 -1.1751600E-004 -9.2341200E-003 -2.3275200E-005
 -7.6345400E-005 -9.1473100E-003 -2.0417100E-005
 -3.6077100E-005 -9.0443800E-003 -1.7441900E-005
  3.3281400E-006 -8.9260700E-003 -1.4359700E-005
  4.1828200E-005 -8.7926900E-003 -1.1180200E-005
  7.9410100E-005 -8.6450900E-003 -7.9125000E-006
  1.1607400E-004 -8.4835700E-003 -4.5657300E-006
  1.5173200E-004 -8.3090600E-003 -1.1481300E-006
  1.8643500E-004 -8.1218900E-003  2.3319500E-006
  2.2002700E-004 -7.9230200E-003  5.8669400E-006
  2.5258800E-004 -7.7128600E-003  9.4493100E-006
  2.8391900E-004 -7.4923400E-003  1.3072000E-005
  3.1410300E-004 -7.2619800E-003  1.6728000E-005
  3.4292600E-004 -7.0226900E-003  2.0410800E-005
  3.7044600E-004 -6.7750600E-003  2.4113800E-005
  3.9646100E-004 -6.5200500E-003  2.7830400E-005
  4.2098200E-004 -6.2582200E-003  3.1554200E-005
  4.4383500E-004 -5.9906900E-003  3.5278400E-005
  4.6498500E-004 -5.7178900E-003  3.8996300E-005
  4.8427200E-004 -5.4411800E-003  4.2700200E-005
  5.0164300E-004 -5.1607800E-003  4.6382300E-005
  5.1691900E-004 -4.8784100E-003  5.0033900E-005
  5.3007300E-004 -4.5939600E-003  5.3644900E-005
  5.4086900E-004 -4.3095700E-003  5.7204000E-005
  5.4934200E-004 -4.0247600E-003  6.0697800E-005
  5.5517800E-004 -3.7421600E-003  6.4111100E-005
  5.5848600E-004 -3.4608500E-003  6.7424900E-005
  5.5889100E-004 -3.1840200E-003  7.0617300E-005
  5.5654000E-004 -2.9102400E-003  7.3661000E-005
  5.5106400E-004 -2.6433100E-003  7.6523500E-005
  5.4256100E-004 -2.3812100E-003  7.9164400E-005
  5.3080700E-004 -2.1285400E-003  8.1534600E-005
  5.1566800E-004 -1.8824300E-003  8.3573500E-005
  4.9731300E-004 -1.6485800E-003  8.5206200E-005
  4.7507000E-004 -1.4228400E-003  8.6340400E-005
  4.4991300E-004 -1.2126100E-003  8.6861600E-005
  4.2009600E-004 -1.0117500E-003  8.6628300E-005
  3.8813400E-004 -8.3020100E-004  8.5464000E-005
  3.5022000E-004 -6.5877100E-004  8.3150600E-005
  3.1178500E-004 -5.1123600E-004  7.9412500E-005
  2.6504600E-004 -3.7383100E-004  7.3911400E-005
  2.2110200E-004 -2.6601900E-004  6.6206200E-005
  1.6440200E-004 -1.6768100E-004  5.5779300E-005
  1.1777100E-004 -1.0518700E-004  4.1906900E-005
  5.0567800E-005 -5.1231700E-005  2.3958800E-005
 -2.8894400E-003  1.0280000E-002  4.5815800E-005
 -2.8403200E-003  9.6944300E-003  4.5552200E-005
 -2.7912000E-003  9.1087900E-003  4.5108900E-005
 -2.7418200E-003  8.5231800E-003  4.4479500E-005
 -2.6922200E-003  7.9377100E-003  4.3656000E-005
 -2.6422600E-003  7.3524200E-003  4.2630600E-005
 -2.5918800E-003  6.7676100E-003  4.1397700E-005
 -2.5409900E-003  6.1834400E-003  3.9953300E-005
 -2.4895400E-003  5.6003500E-003  3.8296600E-005
 -2.4374600E-003  5.0186300E-003  3.6429100E-005
 -2.3847100E-003  4.4388500E-003  3.4355300E-005
 -2.3312800E-003  3.8614100E-003  3.2082400E-005
 -2.2771100E-003  3.2870200E-003  2.9620100E-005
 -2.2222600E-003  2.7161900E-003  2.6981000E-005
 -2.1666800E-003  2.1496900E-003  2.4179600E-005
 -2.1104500E-003  1.5881800E-003  2.1232700E-005
 -2.0535700E-003  1.0324700E-003  1.8159100E-005
 -1.9961300E-003  4.8330100E-004  1.4979100E-005
 -1.9381700E-003 -5.8461900E-005  1.1714700E-005
 -1.8797800E-003 -5.9201900E-004  8.3887000E-006
 -1.8210400E-003 -1.1165000E-003  5.0249000E-006
 -1.7620400E-003 -1.6310700E-003  1.6475700E-006
 -1.7028900E-003 -2.1348600E-003 -1.7187000E-006
 -1.6436700E-003 -2.6270500E-003 -5.0494500E-006
 -1.5845200E-003 -3.1068000E-003 -8.3204300E-006
 -1.5255100E-003 -3.5732900E-003 -1.1508300E-005
 -1.4667800E-003 -4.0257500E-003 -1.4590300E-005
 -1.4084000E-003 -4.4634300E-003 -1.7544900E-005
 -1.3504900E-003 -4.8856000E-003 -2.0352000E-005
 -1.2931200E-003 -5.2916100E-003 -2.2993000E-005
 -1.2364000E-003 -5.6808100E-003 -2.5450900E-005
 -1.1803900E-003 -6.0526200E-003 -2.7710500E-005
 -1.1251600E-003 -6.4065100E-003 -2.9758700E-005
 -1.0707900E-003 -6.7420000E-003 -3.1584300E-005
 -1.0173000E-003 -7.0586500E-003 -3.3178000E-005
 -9.6476800E-004 -7.3561000E-003 -3.4532800E-005
 -9.1318900E-004 -7.6340300E-003 -3.5643300E-005
 -8.6262200E-004 -7.8921700E-003 -3.6506300E-005
 -8.1305400E-004 -8.1303100E-003 -3.7120500E-005
 -7.6450900E-004 -8.3483000E-003 -3.7486100E-005
 -7.1698400E-004 -8.5460500E-003 -3.7605000E-005
 -6.7045700E-004 -8.7234900E-003 -3.7480700E-005
 -6.2494500E-004 -8.8806200E-003 -3.7118100E-005
 -5.8038400E-004 -9.0175100E-003 -3.6523100E-005
 -5.3680700E-004 -9.1342300E-003 -3.5702800E-005
 -4.9412700E-004 -9.2309400E-003 -3.4665200E-005
 -4.5237600E-004 -9.3078200E-003 -3.3419000E-005
 -4.1146900E-004 -9.3650800E-003 -3.1973600E-005
 -3.7141700E-004 -9.4030000E-003 -3.0338900E-005
 -3.3216800E-004 -9.4218600E-003 -2.8524800E-005
 -2.9369200E-004 -9.4220200E-003 -2.6542100E-005
 -2.5598700E-004 -9.4038200E-003 -2.4401100E-005
 -2.1897800E-004 -9.3677000E-003 -2.2112400E-005
 -1.8271800E-004 -9.3140300E-003 -1.9686500E-005
 -1.4709800E-004 -9.2433400E-003 -1.7133900E-005
 -1.1220500E-004 -9.1560300E-003 -1.4464500E-005
 -7.7932600E-005 -9.0527100E-003 -1.1688400E-005
 -4.4366800E-005 -8.9338000E-003 -8.8151300E-006
 -1.1443000E-005 -8.7999800E-003 -5.8539500E-006
  2.0789000E-005 -8.6517100E-003 -2.8139300E-006
  5.2320000E-005 -8.4897100E-003  2.9655900E-007
  8.3156400E-005 -8.3144800E-003  3.4690800E-006
  1.1320500E-004 -8.1268100E-003  6.6959600E-006
  1.4252300E-004 -7.9271900E-003  9.9695300E-006
  1.7095300E-004 -7.7165000E-003  1.3282600E-005
  1.9857100E-004 -7.4952200E-003  1.6628400E-005
  2.2519400E-004 -7.2643100E-003  1.9999900E-005
  2.5087300E-004 -7.0242600E-003  2.3391000E-005
  2.7544600E-004 -6.7761000E-003  2.6794900E-005
  2.9889800E-004 -6.5203000E-003  3.0205700E-005
  3.2112400E-004 -6.2580200E-003  3.3616700E-005
  3.4201800E-004 -5.9896300E-003  3.7021700E-005
  3.6154500E-004 -5.7164900E-003  4.0413800E-005
  3.7951500E-004 -5.4388400E-003  4.3786000E-005
  3.9594600E-004 -5.1582600E-003  4.7130700E-005
  4.1059200E-004 -4.8748300E-003  5.0439300E-005
  4.2349600E-004 -4.5903900E-003  5.3702500E-005
  4.3439000E-004 -4.3048000E-003  5.6909400E-005