# vtk DataFile Version 3.0
MMH: CalculiX output 'object.frd' file to 'vtk' format
ASCII
DATASET UNSTRUCTURED_GRID
POINTS 3232 double
 6.00000000E-001 2.10000000E-001 0.00000000E+000
 6.00000000E-001 2.08667000E-001 0.00000000E+000
 6.00000000E-001 2.07333000E-001 0.00000000E+000
 6.00000000E-001 2.06000000E-001 0.00000000E+000
 6.00000000E-001 2.04667000E-001 0.00000000E+000
 6.00000000E-001 2.03333000E-001 0.00000000E+000
 6.00000000E-001 2.02000000E-001 0.00000000E+000
 6.00000000E-001 2.00667000E-001 0.00000000E+000
 6.00000000E-001 1.99333000E-001 0.00000000E+000
 6.00000000E-001 1.98000000E-001 0.00000000E+000
 6.00000000E-001 1.96667000E-001 0.00000000E+000
 6.00000000E-001 1.95333000E-001 0.00000000E+000
 6.00000000E-001 1.94000000E-001 0.00000000E+000
 6.00000000E-001 1.92667000E-001 0.00000000E+000
 6.00000000E-001 1.91333000E-001 0.00000000E+000
 6.00000000E-001 1.90000000E-001 0.00000000E+000
 5.96490000E-001 1.90000000E-001 0.00000000E+000
 5.92980000E-001 1.90000000E-001 0.00000000E+000
 5.89470000E-001 1.90000000E-001 0.00000000E+000
 5.85960000E-001 1.90000000E-001 0.00000000E+000
 5.82449000E-001 1.90000000E-001 0.00000000E+000
 5.78939000E-001 1.90000000E-001 0.00000000E+000
 5.75429000E-001 1.90000000E-001 0.00000000E+000
 5.71919000E-001 1.90000000E-001 0.00000000E+000
 5.68409000E-001 1.90000000E-001 0.00000000E+000
 5.64899000E-001 1.90000000E-001 0.00000000E+000
 5.61389000E-001 1.90000000E-001 0.00000000E+000
 5.57879000E-001 1.90000000E-001 0.00000000E+000
 5.54369000E-001 1.90000000E-001 0.00000000E+000
 5.50859000E-001 1.90000000E-001 0.00000000E+000
 5.47348000E-001 1.90000000E-001 0.00000000E+000
 5.43838000E-001 1.90000000E-001 0.00000000E+000
 5.40328000E-001 1.90000000E-001 0.00000000E+000
 5.36818000E-001 1.90000000E-001 0.00000000E+000
 5.33308000E-001 1.90000000E-001 0.00000000E+000
 5.29798000E-001 1.90000000E-001 0.00000000E+000
 5.26288000E-001 1.90000000E-001 0.00000000E+000
 5.22778000E-001 1.90000000E-001 0.00000000E+000
 5.19268000E-001 1.90000000E-001 0.00000000E+000
 5.15758000E-001 1.90000000E-001 0.00000000E+000
 5.12247000E-001 1.90000000E-001 0.00000000E+000
 5.08737000E-001 1.90000000E-001 0.00000000E+000
 5.05227000E-001 1.90000000E-001 0.00000000E+000
 5.01717000E-001 1.90000000E-001 0.00000000E+000
 4.98207000E-001 1.90000000E-001 0.00000000E+000
 4.94697000E-001 1.90000000E-001 0.00000000E+000
 4.91187000E-001 1.90000000E-001 0.00000000E+000
 4.87677000E-001 1.90000000E-001 0.00000000E+000
 4.84167000E-001 1.90000000E-001 0.00000000E+000
 4.80657000E-001 1.90000000E-001 0.00000000E+000
 4.77146000E-001 1.90000000E-001 0.00000000E+000
 4.73636000E-001 1.90000000E-001 0.00000000E+000
 4.70126000E-001 1.90000000E-001 0.00000000E+000
 4.66616000E-001 1.90000000E-001 0.00000000E+000
 4.63106000E-001 1.90000000E-001 0.00000000E+000
 4.59596000E-001 1.90000000E-001 0.00000000E+000
 4.56086000E-001 1.90000000E-001 0.00000000E+000
 4.52576000E-001 1.90000000E-001 0.00000000E+000
 4.49066000E-001 1.90000000E-001 0.00000000E+000
 4.45556000E-001 1.90000000E-001 0.00000000E+000
 4.42045000E-001 1.90000000E-001 0.00000000E+000
 4.38535000E-001 1.90000000E-001 0.00000000E+000
 4.35025000E-001 1.90000000E-001 0.00000000E+000
 4.31515000E-001 1.90000000E-001 0.00000000E+000
 4.28005000E-001 1.90000000E-001 0.00000000E+000
 4.24495000E-001 1.90000000E-001 0.00000000E+000
 4.20985000E-001 1.90000000E-001 0.00000000E+000
 4.17475000E-001 1.90000000E-001 0.00000000E+000
 4.13965000E-001 1.90000000E-001 0.00000000E+000
 4.10455000E-001 1.90000000E-001 0.00000000E+000
 4.06944000E-001 1.90000000E-001 0.00000000E+000
 4.03434000E-001 1.90000000E-001 0.00000000E+000
 3.99924000E-001 1.90000000E-001 0.00000000E+000
 3.96414000E-001 1.90000000E-001 0.00000000E+000
 3.92904000E-001 1.90000000E-001 0.00000000E+000
 3.89394000E-001 1.90000000E-001 0.00000000E+000
 3.85884000E-001 1.90000000E-001 0.00000000E+000
 3.82374000E-001 1.90000000E-001 0.00000000E+000
 3.78864000E-001 1.90000000E-001 0.00000000E+000
 3.75353000E-001 1.90000000E-001 0.00000000E+000
 3.71843000E-001 1.90000000E-001 0.00000000E+000
 3.68333000E-001 1.90000000E-001 0.00000000E+000
 3.64823000E-001 1.90000000E-001 0.00000000E+000
 3.61313000E-001 1.90000000E-001 0.00000000E+000
 3.57803000E-001 1.90000000E-001 0.00000000E+000
 3.54293000E-001 1.90000000E-001 0.00000000E+000
 3.50783000E-001 1.90000000E-001 0.00000000E+000
 3.47273000E-001 1.90000000E-001 0.00000000E+000
 3.43763000E-001 1.90000000E-001 0.00000000E+000
 3.40252000E-001 1.90000000E-001 0.00000000E+000
 3.36742000E-001 1.90000000E-001 0.00000000E+000
 3.33232000E-001 1.90000000E-001 0.00000000E+000
 3.29722000E-001 1.90000000E-001 0.00000000E+000
 3.26212000E-001 1.90000000E-001 0.00000000E+000
 3.22702000E-001 1.90000000E-001 0.00000000E+000
 3.19192000E-001 1.90000000E-001 0.00000000E+000
 3.15682000E-001 1.90000000E-001 0.00000000E+000
 3.12172000E-001 1.90000000E-001 0.00000000E+000
 3.08661000E-001 1.90000000E-001 0.00000000E+000
 3.05151000E-001 1.90000000E-001 0.00000000E+000
 3.01641000E-001 1.90000000E-001 0.00000000E+000
 2.98131000E-001 1.90000000E-001 0.00000000E+000
 2.94621000E-001 1.90000000E-001 0.00000000E+000
 2.91111000E-001 1.90000000E-001 0.00000000E+000
 2.87601000E-001 1.90000000E-001 0.00000000E+000
 2.84091000E-001 1.90000000E-001 0.00000000E+000
 2.80581000E-001 1.90000000E-001 0.00000000E+000
 2.77071000E-001 1.90000000E-001 0.00000000E+000
 2.73560000E-001 1.90000000E-001 0.00000000E+000
 2.70050000E-001 1.90000000E-001 0.00000000E+000
 2.66540000E-001 1.90000000E-001 0.00000000E+000
 2.63030000E-001 1.90000000E-001 0.00000000E+000
 2.59520000E-001 1.90000000E-001 0.00000000E+000
 2.56010000E-001 1.90000000E-001 0.00000000E+000
 2.52500000E-001 1.90000000E-001 0.00000000E+000
 2.48990000E-001 1.90000000E-001 0.00000000E+000
 2.48990000E-001 1.91333000E-001 0.00000000E+000
 2.48990000E-001 1.92667000E-001 0.00000000E+000
 2.48990000E-001 1.94000000E-001 0.00000000E+000
 2.48990000E-001 1.95333000E-001 0.00000000E+000
 2.48990000E-001 1.96667000E-001 0.00000000E+000
 2.48990000E-001 1.98000000E-001 0.00000000E+000
 2.48990000E-001 1.99333000E-001 0.00000000E+000
 2.48990000E-001 2.00667000E-001 0.00000000E+000
 2.48990000E-001 2.02000000E-001 0.00000000E+000
 2.48990000E-001 2.03333000E-001 0.00000000E+000
 2.48990000E-001 2.04667000E-001 0.00000000E+000
 2.48990000E-001 2.06000000E-001 0.00000000E+000
 2.48990000E-001 2.07333000E-001 0.00000000E+000
 2.48990000E-001 2.08667000E-001 0.00000000E+000
 2.48990000E-001 2.10000000E-001 0.00000000E+000
 2.52500000E-001 2.10000000E-001 0.00000000E+000
 2.56010000E-001 2.10000000E-001 0.00000000E+000
 2.59520000E-001 2.10000000E-001 0.00000000E+000
 2.63030000E-001 2.10000000E-001 0.00000000E+000
 2.66540000E-001 2.10000000E-001 0.00000000E+000
 2.70050000E-001 2.10000000E-001 0.00000000E+000
 2.73560000E-001 2.10000000E-001 0.00000000E+000
 2.77071000E-001 2.10000000E-001 0.00000000E+000
 2.80581000E-001 2.10000000E-001 0.00000000E+000
 2.84091000E-001 2.10000000E-001 0.00000000E+000
 2.87601000E-001 2.10000000E-001 0.00000000E+000
 2.91111000E-001 2.10000000E-001 0.00000000E+000
 2.94621000E-001 2.10000000E-001 0.00000000E+000
 2.98131000E-001 2.10000000E-001 0.00000000E+000
 3.01641000E-001 2.10000000E-001 0.00000000E+000
 3.05151000E-001 2.10000000E-001 0.00000000E+000
 3.08661000E-001 2.10000000E-001 0.00000000E+000
 3.12172000E-001 2.10000000E-001 0.00000000E+000
 3.15682000E-001 2.10000000E-001 0.00000000E+000
 3.19192000E-001 2.10000000E-001 0.00000000E+000
 3.22702000E-001 2.10000000E-001 0.00000000E+000
 3.26212000E-001 2.10000000E-001 0.00000000E+000
 3.29722000E-001 2.10000000E-001 0.00000000E+000
 3.33232000E-001 2.10000000E-001 0.00000000E+000
 3.36742000E-001 2.10000000E-001 0.00000000E+000
 3.40252000E-001 2.10000000E-001 0.00000000E+000
 3.43763000E-001 2.10000000E-001 0.00000000E+000
 3.47273000E-001 2.10000000E-001 0.00000000E+000
 3.50783000E-001 2.10000000E-001 0.00000000E+000
 3.54293000E-001 2.10000000E-001 0.00000000E+000
 3.57803000E-001 2.10000000E-001 0.00000000E+000
 3.61313000E-001 2.10000000E-001 0.00000000E+000
 3.64823000E-001 2.10000000E-001 0.00000000E+000
 3.68333000E-001 2.10000000E-001 0.00000000E+000
 3.71843000E-001 2.10000000E-001 0.00000000E+000
 3.75353000E-001 2.10000000E-001 0.00000000E+000
 3.78864000E-001 2.10000000E-001 0.00000000E+000
 3.82374000E-001 2.10000000E-001 0.00000000E+000
 3.85884000E-001 2.10000000E-001 0.00000000E+000
 3.89394000E-001 2.10000000E-001 0.00000000E+000
 3.92904000E-001 2.10000000E-001 0.00000000E+000
 3.96414000E-001 2.10000000E-001 0.00000000E+000
 3.99924000E-001 2.10000000E-001 0.00000000E+000
 4.03434000E-001 2.10000000E-001 0.00000000E+000
 4.06944000E-001 2.10000000E-001 0.00000000E+000
 4.10455000E-001 2.10000000E-001 0.00000000E+000
 4.13965000E-001 2.10000000E-001 0.00000000E+000
 4.17475000E-001 2.10000000E-001 0.00000000E+000
 4.20985000E-001 2.10000000E-001 0.00000000E+000
 4.24495000E-001 2.10000000E-001 0.00000000E+000
 4.28005000E-001 2.10000000E-001 0.00000000E+000
 4.31515000E-001 2.10000000E-001 0.00000000E+000
 4.35025000E-001 2.10000000E-001 0.00000000E+000
 4.38535000E-001 2.10000000E-001 0.00000000E+000
 4.42045000E-001 2.10000000E-001 0.00000000E+000
 4.45556000E-001 2.10000000E-001 0.00000000E+000
 4.49066000E-001 2.10000000E-001 0.00000000E+000
 4.52576000E-001 2.10000000E-001 0.00000000E+000
 4.56086000E-001 2.10000000E-001 0.00000000E+000
 4.59596000E-001 2.10000000E-001 0.00000000E+000
 4.63106000E-001 2.10000000E-001 0.00000000E+000
 4.66616000E-001 2.10000000E-001 0.00000000E+000
 4.70126000E-001 2.10000000E-001 0.00000000E+000
 4.73636000E-001 2.10000000E-001 0.00000000E+000
 4.77146000E-001 2.10000000E-001 0.00000000E+000
 4.80657000E-001 2.10000000E-001 0.00000000E+000
 4.84167000E-001 2.10000000E-001 0.00000000E+000
 4.87677000E-001 2.10000000E-001 0.00000000E+000
 4.91187000E-001 2.10000000E-001 0.00000000E+000
 4.94697000E-001 2.10000000E-001 0.00000000E+000
[...]
POINT_DATA 3232
VECTORS DISP double
 -5.7754300E-003  2.0931300E-002  9.9431800E-006
 -5.4641500E-003  2.0968200E-002  1.0065300E-005
 -5.1520800E-003  2.1005100E-002  1.0429600E-005
 -4.8404700E-003  2.1041900E-002  1.1015400E-005
 -4.5286800E-003  2.1078800E-002  1.1791900E-005
 -4.2170300E-003  2.1115700E-002  1.2726500E-005
 -3.9053300E-003  2.1152600E-002  1.3778400E-005
 -3.5937300E-003  2.1189500E-002  1.4903700E-005
 -3.2820300E-003  2.1226500E-002  1.6055900E-005
 -2.9704400E-003  2.1263500E-002  1.7187700E-005
 -2.6587100E-003  2.1300500E-002  1.8251700E-005
 -2.3471400E-003  2.1337500E-002  1.9205000E-005
 -2.0351800E-003  2.1374700E-002  2.0005000E-005
 -1.7237500E-003  2.1411600E-002  2.0620400E-005
 -1.4110700E-003  2.1449000E-002  2.1009800E-005
 -1.1004000E-003  2.1484700E-002  2.1139700E-005
 -1.0035200E-003  2.0666300E-002  2.1225600E-005
 -9.0762600E-004  1.9844000E-002  2.1525500E-005
 -8.1140400E-004  1.9024500E-002  2.2064400E-005
 -7.1564400E-004  1.8202800E-002  2.2853800E-005
 -6.2031000E-004  1.7382600E-002  2.3910200E-005
 -5.2559500E-004  1.6561200E-002  2.5238600E-005
 -4.3180500E-004  1.5741100E-002  2.6848600E-005
 -3.3901800E-004  1.4920600E-002  2.8742000E-005
 -2.4765300E-004  1.4101700E-002  3.0921200E-005
 -1.5780500E-004  1.3283300E-002  3.3383200E-005
 -6.9915300E-005  1.2467200E-002  3.6123000E-005
  1.5860900E-005  1.1652600E-002  3.9132000E-005
  9.9108400E-005  1.0841100E-002  4.2398900E-005
  1.7960300E-004  1.0032700E-002  4.5908900E-005
  2.5697200E-004  9.2285100E-003  4.9645200E-005
  3.3094300E-004  8.4289000E-003  5.3587700E-005
  4.0118400E-004  7.6351000E-003  5.7714900E-005
  4.6740800E-004  6.8476100E-003  6.2002600E-005
  5.2931800E-004  6.0676500E-003  6.6425400E-005
  5.8663900E-004  5.2959100E-003  7.0956300E-005
  6.3911700E-004  4.5336200E-003  7.5567300E-005
  6.8650100E-004  3.7816100E-003  8.0230000E-005
  7.2860100E-004  3.0410600E-003  8.4914900E-005
  7.6519000E-004  2.3129500E-003  8.9593500E-005
  7.9616600E-004  1.5983600E-003  9.4236600E-005
  8.2132700E-004  8.9846400E-004  9.8816600E-005
  8.4067000E-004  2.1415000E-004  1.0330600E-004
  8.5403400E-004 -4.5328000E-004  1.0768000E-004
  8.6150500E-004 -1.1031200E-003  1.1191300E-004
  8.6299000E-004 -1.7339700E-003  1.1598200E-004
  8.5863300E-004 -2.3452800E-003  1.1986800E-004
  8.4845300E-004 -2.9357000E-003  1.2355000E-004
  8.3261000E-004 -3.5047300E-003  1.2701300E-004
  8.1126000E-004 -4.0512300E-003  1.3024100E-004
  7.8456000E-004 -4.5745900E-003  1.3322300E-004
  7.5279800E-004 -5.0741000E-003  1.3594900E-004
  7.1613300E-004 -5.5489400E-003  1.3841000E-004
  6.7494900E-004 -5.9988500E-003  1.4060000E-004
  6.2943700E-004 -6.4228600E-003  1.4251500E-004
  5.8001700E-004 -6.8211000E-003  1.4415300E-004
  5.2695000E-004 -7.1925600E-003  1.4551100E-004
  4.7063600E-004 -7.5376000E-003  1.4659300E-004
  4.1142800E-004 -7.8554200E-003  1.4739700E-004
  3.4967300E-004 -8.1463300E-003  1.4792800E-004
  2.8580800E-004 -8.4099500E-003  1.4818800E-004
  2.2013100E-004 -8.6464100E-003  1.4818200E-004
  1.5311900E-004 -8.8558500E-003  1.4791300E-004
  8.5050500E-005 -9.0381300E-003  1.4738700E-004
  1.6391900E-005 -9.1938900E-003  1.4660900E-004
 -5.2568200E-005 -9.3228400E-003  1.4558200E-004
 -1.2141900E-004 -9.4259500E-003  1.4431300E-004
 -1.8984100E-004 -9.5029400E-003  1.4280400E-004
 -2.5750200E-004 -9.5548700E-003  1.4106300E-004
 -3.2405800E-004 -9.5817300E-003  1.3909200E-004
 -3.8924300E-004 -9.5844400E-003  1.3689500E-004
 -4.5272600E-004 -9.5634000E-003  1.3447600E-004
 -5.1427300E-004 -9.5192800E-003  1.3183900E-004
 -5.7360600E-004 -9.4529200E-003  1.2898500E-004
 -6.3049200E-004 -9.3647700E-003  1.2591800E-004
 -6.8474200E-004 -9.2560000E-003  1.2264100E-004
 -7.3609400E-004 -9.1269900E-003  1.1915400E-004
 -7.8446900E-004 -8.9790000E-003  1.1546100E-004
 -8.2957300E-004 -8.8126200E-003  1.1156200E-004
 -8.7142400E-004 -8.6289000E-003  1.0746000E-004
 -9.0972200E-004 -8.4288600E-003  1.0315500E-004
 -9.4454800E-004 -8.2132000E-003  9.8650400E-005
 -9.7562600E-004 -7.9834500E-003  9.3946600E-005
 -1.0030700E-003 -7.7399000E-003  8.9045500E-005
 -1.0266500E-003 -7.4845700E-003  8.3950000E-005
 -1.0464900E-003 -7.2173900E-003  7.8661400E-005
 -1.0624100E-003 -6.9407700E-003  7.3184200E-005
 -1.0745600E-003 -6.6544500E-003  6.7520900E-005
 -1.0827800E-003 -6.3610300E-003  6.1677000E-005
 -1.0872500E-003 -6.0602000E-003  5.5658000E-005
 -1.0878100E-003 -5.7546200E-003  4.9470300E-005
 -1.0847200E-003 -5.4440400E-003  4.3123400E-005
 -1.0777400E-003 -5.1311400E-003  3.6626500E-005
 -1.0672700E-003 -4.8156500E-003  2.9994200E-005
 -1.0529500E-003 -4.5004200E-003  2.3239500E-005
 -1.0353400E-003 -4.1849500E-003  1.6384600E-005
 -1.0139000E-003 -3.8725400E-003  9.4492000E-006
 -9.8938600E-004 -3.5620700E-003  2.4652700E-006
 -9.6110600E-004 -3.2577500E-003 -4.5364600E-006
 -9.2992500E-004 -2.9573700E-003 -1.1510000E-005
 -8.9506200E-004 -2.6664700E-003 -1.8407900E-005
 -8.5742200E-004 -2.3813400E-003 -2.5163400E-005
 -8.1622000E-004 -2.1092900E-003 -3.1703700E-005
 -7.7225800E-004 -1.8446400E-003 -3.7930300E-005
 -7.2493300E-004 -1.5969000E-003 -4.3733200E-005
 -6.7466000E-004 -1.3580000E-003 -4.8964000E-005
 -6.2140400E-004 -1.1401500E-003 -5.3457500E-005
 -5.6463500E-004 -9.3220400E-004 -5.6986700E-005
 -5.0566400E-004 -7.4999000E-004 -5.9303700E-005
 -4.4185400E-004 -5.7802400E-004 -6.0054500E-005
 -3.7756400E-004 -4.3759400E-004 -5.8865700E-005
 -3.0546000E-004 -3.0614700E-004 -5.5164600E-005
 -2.3726300E-004 -2.1501200E-004 -4.8400500E-005
 -1.5523300E-004 -1.2631200E-004 -3.7605400E-005
 -9.2754100E-005 -9.3856600E-005 -2.2193100E-005
  0.0000000E+000  0.0000000E+000  0.0000000E+000
  0.0000000E+000  0.0000000E+000  0.0000000E+000
  0.0000000E+000  0.0000000E+000  0.0000000E+000
  0.0000000E+000  0.0000000E+000  0.0000000E+000
  0.0000000E+000  0.0000000E+000  0.0000000E+000
  0.0000000E+000  0.0000000E+000  0.0000000E+000
  0.0000000E+000  0.0000000E+000  0.0000000E+000
  0.0000000E+000  0.0000000E+000  0.0000000E+000
  0.0000000E+000  0.0000000E+000  0.0000000E+000
  0.0000000E+000  0.0000000E+000  0.0000000E+000
  0.0000000E+000  0.0000000E+000  0.0000000E+000
  0.0000000E+000  0.0000000E+000  0.0000000E+000
  0.0000000E+000  0.0000000E+000  0.0000000E+000
  0.0000000E+000  0.0000000E+000  0.0000000E+000
  0.0000000E+000  0.0000000E+000  0.0000000E+000
  0.0000000E+000  0.0000000E+000  0.0000000E+000
  8.6237400E-005 -8.9135300E-005  2.5669400E-005
  1.4768900E-004 -1.2457200E-004  4.4447700E-005
  2.2409200E-004 -2.1510800E-004  5.8513600E-005
  2.8734600E-004 -3.1076400E-004  6.8511300E-005
  3.5202200E-004 -4.4567800E-004  7.5395900E-005
  4.0800300E-004 -5.9180500E-004  7.9715300E-005
  4.6137100E-004 -7.6804500E-004  8.2026300E-005
  5.0838300E-004 -9.5658300E-004  8.2688300E-005
  5.5112000E-004 -1.1691100E-003  8.2041800E-005
  5.8860400E-004 -1.3933500E-003  8.0319400E-005
  6.2113500E-004 -1.6367800E-003  7.7737700E-005
  6.4898200E-004 -1.8904300E-003  7.4447700E-005
  6.7170400E-004 -2.1592600E-003  7.0589900E-005
  6.9009400E-004 -2.4363300E-003  6.6263500E-005
  7.0344800E-004 -2.7250700E-003  6.1560200E-005
  7.1274700E-004 -3.0197800E-003  5.6546200E-005
  7.1723700E-004 -3.3229900E-003  5.1282200E-005
  7.1793500E-004 -3.6297800E-003  4.5813500E-005
  7.1412200E-004 -3.9420900E-003  4.0180700E-005
  7.0678600E-004 -4.2556100E-003  3.4416200E-005
  6.9527300E-004 -4.5717600E-003  2.8547900E-005
  6.8051200E-004 -4.8868300E-003  2.2600000E-005
  6.6193000E-004 -5.2017100E-003  1.6593000E-005
  6.4036500E-004 -5.5133300E-003  1.0545500E-005
  6.1534700E-004 -5.8220200E-003  4.4742500E-006
  5.8759400E-004 -6.1253400E-003 -1.6061100E-006
  5.5674900E-004 -6.4231000E-003 -7.6803900E-006
  5.2339900E-004 -6.7134300E-003 -1.3736600E-005
  4.8730400E-004 -6.9957100E-003 -1.9760200E-005
  4.4890600E-004 -7.2685400E-003 -2.5740400E-005
  4.0807800E-004 -7.5310200E-003 -3.1662900E-005
  3.6512800E-004 -7.7820200E-003 -3.7517000E-005
  3.2001600E-004 -8.0205900E-003 -4.3288800E-005
  2.7294500E-004 -8.2456500E-003 -4.8967000E-005
  2.2392300E-004 -8.4563800E-003 -5.4538100E-005
  1.7308500E-004 -8.6516300E-003 -5.9989800E-005
  1.2044600E-004 -8.8308100E-003 -6.5308900E-005
  6.6110200E-005 -8.9926400E-003 -7.0482000E-005
  1.0070400E-005 -9.1367700E-003 -7.5496300E-005
 -4.7580700E-005 -9.2618600E-003 -8.0337300E-005
 -1.0688700E-004 -9.3676800E-003 -8.4992400E-005
 -1.6775400E-004 -9.4529700E-003 -8.9446700E-005
 -2.3026500E-004 -9.5175000E-003 -9.3687100E-005
 -2.9432900E-004 -9.5602100E-003 -9.7699200E-005
 -3.6005300E-004 -9.5807800E-003 -1.0146900E-004
 -4.2736100E-004 -9.5784400E-003 -1.0498400E-004
 -4.9636400E-004 -9.5527400E-003 -1.0822900E-004
 -5.6701400E-004 -9.5031800E-003 -1.1119200E-004
 -6.3941000E-004 -9.4292300E-003 -1.1386000E-004
 -7.1353500E-004 -9.3306300E-003 -1.1622200E-004
 -7.8946500E-004 -9.2068600E-003 -1.1826400E-004
 -8.6721500E-004 -9.0578000E-003 -1.1997700E-004
 -9.4682900E-004 -8.8830200E-003 -1.2135100E-004
 -1.0283400E-003 -8.6824800E-003 -1.2237700E-004
 -1.1117800E-003 -8.4559300E-003 -1.2304900E-004
 -1.1971800E-003 -8.2033500E-003 -1.2335900E-004
 -1.2845300E-003 -7.9247100E-003 -1.2330500E-004
 -1.3738700E-003 -7.6200000E-003 -1.2288200E-004
 -1.4651700E-003 -7.2894200E-003 -1.2209200E-004
 -1.5584500E-003 -6.9330000E-003 -1.2093400E-004
 -1.6536600E-003 -6.5511000E-003 -1.1941200E-004
 -1.7507900E-003 -6.1438800E-003 -1.1753300E-004
 -1.8497600E-003 -5.7118100E-003 -1.1530300E-004
 -1.9505300E-003 -5.2552000E-003 -1.1273400E-004
 -2.0530200E-003 -4.7746000E-003 -1.0983900E-004
 -2.1571200E-003 -4.2705200E-003 -1.0663200E-004
 -2.2627600E-003 -3.7435400E-003 -1.0313100E-004
 -2.3698000E-003 -3.1943700E-003 -9.9357300E-005
 -2.4781200E-003 -2.6236300E-003 -9.5331600E-005
 -2.5875700E-003 -2.0321800E-003 -9.1078800E-005
 -2.6980300E-003 -1.4207300E-003 -8.6624600E-005
 -2.8093100E-003 -7.9023400E-004 -8.1997200E-005
 -2.9212600E-003 -1.4148000E-004 -7.7225300E-005
 -3.0337200E-003  5.2452300E-004 -7.2339600E-005
 -3.1465200E-003  1.2068700E-003 -6.7370800E-005
 -3.2595000E-003  1.9046100E-003 -6.2351000E-005
 -3.3724700E-003  2.6166600E-003 -5.7311800E-005
 -3.4853100E-003  3.3421200E-003 -5.2285000E-005
 -3.5978200E-003  4.0798800E-003 -4.7302300E-005
 -3.7098900E-003  4.8290700E-003 -4.2393900E-005
 -3.8213800E-003  5.5885400E-003 -3.7589900E-005
 -3.9321700E-003  6.3574700E-003 -3.2918000E-005
 -4.0421600E-003  7.1347800E-003 -2.8405300E-005
 -4.1512500E-003  7.9196300E-003 -2.4076200E-005
 -4.2594100E-003  8.7111000E-003 -1.9953400E-005
 -4.3665200E-003  9.5083100E-003 -1.6057000E-005
 -4.4726300E-003  1.0310600E-002 -1.2404600E-005
 -4.5776500E-003  1.1116900E-002 -9.0114600E-006
 -4.6816800E-003  1.1926900E-002 -5.8892800E-006
 -4.7846400E-003  1.2739600E-002 -3.0475900E-006
 -4.8866900E-003  1.3554800E-002 -4.9221100E-007
 -4.9877700E-003  1.4371600E-002  1.7734100E-006
 -5.0881000E-003  1.5190000E-002  3.7492100E-006
 -5.1876000E-003  1.6009000E-002  5.4379200E-006
 -5.2865900E-003  1.6829000E-002  6.8444700E-006
 -5.3849100E-003  1.7649100E-002  7.9769900E-006
 -5.4830300E-003  1.8469700E-002  8.8437600E-006
 -5.5805500E-003  1.9290000E-002  9.4554900E-006
 -5.6784100E-003  2.0110900E-002  9.8213400E-006
 -5.3663600E-003  2.0147600E-002  9.9469900E-006
 -5.2690100E-003  1.9327000E-002  9.5897900E-006
 -5.1712000E-003  1.8506300E-002  8.9914400E-006
 -5.0732900E-003  1.7685800E-002  8.1447700E-006
 -4.9749000E-003  1.6865400E-002  7.0390800E-006
 -4.8761300E-003  1.6045400E-002  5.6662700E-006
 -4.7767600E-003  1.5225900E-002  4.0185900E-006
 -4.6768100E-003  1.4407400E-002  2.0911700E-006
 -4.5761200E-003  1.3590100E-002 -1.1873600E-007
 -4.4747200E-003  1.2774500E-002 -2.6109000E-006
 -4.3725100E-003  1.1961100E-002 -5.3822700E-006
 -4.2695100E-003  1.1150600E-002 -8.4269200E-006
 -4.1657000E-003  1.0343400E-002 -1.1735900E-005
 -4.0610900E-003  9.5403800E-003 -1.5297600E-005
 -3.9557200E-003  8.7421800E-003 -1.9097300E-005
 -3.8496400E-003  7.9497000E-003 -2.3118000E-005
 -3.7429300E-003  7.1637100E-003 -2.7340000E-005
 -3.6356500E-003  6.3851400E-003 -3.1741400E-005
 -3.5279400E-003  5.6149200E-003 -3.6298100E-005
 -3.4198800E-003  4.8539800E-003 -4.0984100E-005
 -3.3116300E-003  4.1033400E-003 -4.5772100E-005
 -3.2033200E-003  3.3639500E-003 -5.0633100E-005
 -3.0950800E-003  2.6368700E-003 -5.5537200E-005
 -2.9871000E-003  1.9230600E-003 -6.0453900E-005
 -2.8795200E-003  1.2235600E-003 -6.5352000E-005
 -2.7725100E-003  5.3938500E-004 -7.0200600E-005
 -2.6662300E-003 -1.2849800E-004 -7.4968500E-005
 -2.5608500E-003 -7.7911000E-004 -7.9625500E-005
 -2.4565100E-003 -1.4115400E-003 -8.4141900E-005
 -2.3533800E-003 -2.0248600E-003 -8.8489200E-005
 -2.2515900E-003 -2.6182300E-003 -9.2640300E-005
 -2.1512800E-003 -3.1908100E-003 -9.6569600E-005
 -2.0525600E-003 -3.7418500E-003 -1.0025300E-004
 -1.9555400E-003 -4.2706000E-003 -1.0367000E-004
 -1.8603200E-003 -4.7764200E-003 -1.0680000E-004
 -1.7669700E-003 -5.2586900E-003 -1.0962600E-004
 -1.6755800E-003 -5.7168700E-003 -1.1213200E-004
 -1.5861600E-003 -6.1504800E-003 -1.1430700E-004
 -1.4987900E-003 -6.5590700E-003 -1.1613900E-004
 -1.4134700E-003 -6.9423300E-003 -1.1762200E-004
 -1.3302000E-003 -7.2999100E-003 -1.1874900E-004
 -1.2490000E-003 -7.6316400E-003 -1.1951700E-004
 -1.1698300E-003 -7.9373000E-003 -1.1992400E-004
 -1.0927000E-003 -8.2168200E-003 -1.1997200E-004
 -1.0175200E-003 -8.4701600E-003 -1.1966200E-004
 -9.4430700E-004 -8.6973200E-003 -1.1899900E-004
 -8.7295800E-004 -8.8984100E-003 -1.1798900E-004
 -8.0346200E-004 -9.0735200E-003 -1.1663800E-004
 -7.3572700E-004 -9.2229300E-003 -1.1495600E-004
 -6.6971800E-004 -9.3467900E-003 -1.1295200E-004
 -6.0536200E-004 -9.4455000E-003 -1.1063600E-004
 -5.4260000E-004 -9.5193400E-003 -1.0802000E-004
 -4.8138900E-004 -9.5687700E-003 -1.0511500E-004
 -4.2164900E-004 -9.5942200E-003 -1.0193400E-004
 -3.6336800E-004 -9.5961600E-003 -9.8490600E-005
 -3.0646300E-004 -9.5752300E-003 -9.4797100E-005
 -2.5093900E-004 -9.5318700E-003 -9.0867300E-005
 -1.9673500E-004 -9.4669000E-003 -8.6714800E-005
 -1.4385200E-004 -9.3807500E-003 -8.2353500E-005
 -9.2281500E-005 -9.2744100E-003 -7.7797000E-005
 -4.1997600E-005 -9.1483200E-003 -7.3059000E-005
  6.9345000E-006 -9.0035700E-003 -6.8152800E-005
  5.4575100E-005 -8.8406500E-003 -6.3092200E-005
  1.0078600E-004 -8.6607200E-003 -5.7890100E-005
  1.4564800E-004 -8.4643800E-003 -5.2559700E-005
  1.8897000E-004 -8.2527900E-003 -4.7113800E-005
  2.3082900E-004 -8.0266500E-003 -4.1565000E-005
  2.7100700E-004 -7.7871500E-003 -3.5925900E-005
  3.0955400E-004 -7.5350700E-003 -3.0208600E-005
  3.4624800E-004 -7.2716700E-003 -2.4425700E-005
  3.8109500E-004 -6.9977000E-003 -1.8589100E-005
  4.1388200E-004 -6.7146100E-003 -1.2711300E-005
  4.4457500E-004 -6.4230300E-003 -6.8045000E-006
  4.7295900E-004 -6.1246600E-003 -8.8165500E-007
  4.9898700E-004 -5.8199200E-003  5.0443400E-006
  5.2241300E-004 -5.5109100E-003  1.0959400E-005
  5.4321900E-004 -5.1976600E-003  1.6848600E-005
  5.6109700E-004 -4.8827700E-003  2.2695800E-005
  5.7609200E-004 -4.5658600E-003  2.8482800E-005
  5.8781600E-004 -4.2500400E-003  3.4189400E-005
  5.9639100E-004 -3.9344700E-003  3.9791900E-005
  6.0136700E-004 -3.6228400E-003  4.5263500E-005
  6.0291100E-004 -3.3137700E-003  5.0571400E-005
  6.0058700E-004 -3.0116200E-003  5.5677700E-005
  5.9450400E-004 -2.7143200E-003  6.0535700E-005
  5.8439800E-004 -2.4271200E-003  6.5089300E-005
  5.7012800E-004 -2.1469800E-003  6.9269800E-005
  5.5187000E-004 -1.8804000E-003  7.2992900E-005
  5.2889400E-004 -1.6228600E-003  7.6154700E-005
  5.0228400E-004 -1.3827600E-003  7.8627100E-005
  4.7011600E-004 -1.1533200E-003  8.0251600E-005
  4.3520800E-004 -9.4579100E-004  8.0830500E-005
  3.9334100E-004 -7.4993700E-004  8.0119800E-005
  3.5060700E-004 -5.8129100E-004  7.7811000E-005
  2.9834100E-004 -4.2445800E-004  7.3524700E-005
  2.4899400E-004 -3.0134800E-004  6.6766000E-005
  1.8521100E-004 -1.8939500E-004  5.6953500E-005
  1.3258600E-004 -1.1828100E-004  4.3272500E-005
  5.6915100E-005 -5.7342700E-005  2.5014100E-005
 -5.0548200E-003  2.0184400E-002  1.0318100E-005
 -4.9571900E-003  1.9363800E-002  9.9841900E-006
 -4.8596300E-003  1.8543100E-002  9.4257900E-006
 -4.7616600E-003  1.7722500E-002  8.6368200E-006
 -4.6634700E-003  1.6901900E-002  7.6083300E-006
 -4.5648200E-003  1.6081700E-002  6.3322100E-006
 -4.4657600E-003  1.5262000E-002  4.8019000E-006
 -4.3661600E-003  1.4443100E-002  3.0125400E-006
 -4.2660100E-003  1.3625500E-002  9.6174400E-007
 -4.1652700E-003  1.2809400E-002 -1.3504100E-006
 -4.0639300E-003  1.1995600E-002 -3.9212400E-006
 -3.9620000E-003  1.1184400E-002 -6.7453000E-006
 -3.8594700E-003  1.0376500E-002 -9.8145300E-006
 -3.7564300E-003  9.5726700E-003 -1.3118200E-005
 -3.6528700E-003  8.7736400E-003 -1.6642900E-005
 -3.5489300E-003  7.9801600E-003 -2.0373100E-005
 -3.4446400E-003  7.1931300E-003 -2.4290400E-005
 -3.3401500E-003  6.4134000E-003 -2.8374900E-005
 -3.2355400E-003  5.6419300E-003 -3.2604100E-005
 -3.1309700E-003  4.8796700E-003 -3.6954400E-005
 -3.0265700E-003  4.1276000E-003 -4.1400000E-005
 -2.9224800E-003  3.3867400E-003 -4.5914400E-005
 -2.8188700E-003  2.6580800E-003 -5.0469800E-005
 -2.7158900E-003  1.9426700E-003 -5.5037900E-005
 -2.6137200E-003  1.2414800E-003 -5.9589600E-005
 -2.5124900E-003  5.5558200E-004 -6.4096200E-005
 -2.4123900E-003 -1.1405900E-004 -6.8528800E-005
 -2.3135600E-003 -7.6646400E-004 -7.2858900E-005
 -2.2161600E-003 -1.4006900E-003 -7.7058900E-005
 -2.1203100E-003 -2.0158200E-003 -8.1102200E-005
 -2.0261400E-003 -2.6109800E-003 -8.4963300E-005
 -1.9337900E-003 -3.1853500E-003 -8.8618200E-005
 -1.8433300E-003 -3.7381200E-003 -9.2044700E-005
 -1.7548800E-003 -4.2685900E-003 -9.5222300E-005
 -1.6684800E-003 -4.7760700E-003 -9.8132500E-005
 -1.5842200E-003 -5.2599400E-003 -1.0075900E-004
 -1.5021100E-003 -5.7196500E-003 -1.0308700E-004
 -1.4222100E-003 -6.1547100E-003 -1.0510600E-004
 -1.3445000E-003 -6.5646800E-003 -1.0680400E-004
 -1.2689900E-003 -6.9492000E-003 -1.0817600E-004
 -1.1956700E-003 -7.3079700E-003 -1.0921400E-004
 -1.1244900E-003 -7.6407600E-003 -1.0991600E-004
 -1.0554300E-003 -7.9473900E-003 -1.1028100E-004
 -9.8840500E-004 -8.2277700E-003 -1.1030800E-004
 -9.2340000E-004 -8.4818500E-003 -1.1000000E-004
 -8.6029600E-004 -8.7096500E-003 -1.0936200E-004
 -7.9906700E-004 -8.9112500E-003 -1.0839800E-004
 -7.3959000E-004 -9.0867900E-003 -1.0711500E-004
 -6.8181700E-004 -9.2364800E-003 -1.0552200E-004
 -6.2564700E-004 -9.3605500E-003 -1.0362600E-004
 -5.7099700E-004 -9.4593400E-003 -1.0143900E-004
 -5.1780800E-004 -9.5331700E-003 -9.8970100E-005
 -4.6596000E-004 -9.5824900E-003 -9.6231700E-005
 -4.1544100E-004 -9.6077100E-003 -9.3235400E-005
 -3.6611000E-004 -9.6093900E-003 -8.9993600E-005
 -3.1798700E-004 -9.5880300E-003 -8.6518900E-005
 -2.7094000E-004 -9.5442800E-003 -8.2824200E-005
 -2.2499600E-004 -9.4787000E-003 -7.8922800E-005
 -1.8006500E-004 -9.3920600E-003 -7.4827500E-005
 -1.3615600E-004 -9.2849500E-003 -7.0551800E-005
 -9.3250200E-005 -9.1582700E-003 -6.6108600E-005
 -5.1318200E-005 -9.0126400E-003 -6.1511000E-005
 -1.0425700E-005 -8.8490600E-003 -5.6771800E-005
  2.9490100E-005 -8.6681800E-003 -5.1903900E-005
  6.8295400E-005 -8.4711100E-003 -4.6919600E-005
  1.0606000E-004 -8.2585200E-003 -4.1831500E-005
  1.4261400E-004 -8.0316100E-003 -3.6651700E-005
  1.7799800E-004 -7.7910800E-003 -3.1392100E-005
  2.1204900E-004 -7.5382400E-003 -2.6064800E-005
  2.4473600E-004 -7.2737600E-003 -2.0681200E-005
  2.7594100E-004 -6.9991100E-003 -1.5253300E-005
  3.0554100E-004 -6.7148700E-003 -9.7926300E-006
  3.3347500E-004 -6.4227300E-003 -4.3112200E-006
  3.5953600E-004 -6.1231300E-003  1.1788600E-006
  3.8370300E-004 -5.8180200E-003  6.6652000E-006
  4.0571400E-004 -5.5076500E-003  1.2134600E-005
  4.2557000E-004 -5.1942700E-003  1.7572900E-005
  4.4298200E-004 -4.8778900E-003  2.2964700E-005