# vtk DataFile Version 3.0
MMH: CalculiX output 'object.frd' file to 'vtk' format
ASCII
DATASET UNSTRUCTURED_GRID
POINTS 3232 double
 6.00000000E-001 2.10000000E-001 0.00000000E+000
 6.00000000E-001 2.08667000E-001 0.00000000E+000
 6.00000000E-001 2.07333000E-001 0.00000000E+000
 6.00000000E-001 2.06000000E-001 0.00000000E+000
 6.00000000E-001 2.04667000E-001 0.00000000E+000
 6.00000000E-001 2.03333000E-001 0.00000000E+000
 6.00000000E-001 2.02000000E-001 0.00000000E+000
 6.00000000E-001 2.00667000E-001 0.00000000E+000
 6.00000000E-001 1.99333000E-001 0.00000000E+000
 6.00000000E-001 1.98000000E-001 0.00000000E+000
 6.00000000E-001 1.96667000E-001 0.00000000E+000
 6.00000000E-001 1.95333000E-001 0.00000000E+000
 6.00000000E-001 1.94000000E-001 0.00000000E+000
 6.00000000E-001 1.92667000E-001 0.00000000E+000
 6.00000000E-001 1.91333000E-001 0.00000000E+000
 6.00000000E-001 1.90000000E-001 0.00000000E+000
 5.96490000E-001 1.90000000E-001 0.00000000E+000
 5.92980000E-001 1.90000000E-001 0.00000000E+000
 5.89470000E-001 1.90000000E-001 0.00000000E+000
 5.85960000E-001 1.90000000E-001 0.00000000E+000
 5.82449000E-001 1.90000000E-001 0.00000000E+000
 5.78939000E-001 1.90000000E-001 0.00000000E+000
 5.75429000E-001 1.90000000E-001 0.00000000E+000
 5.71919000E-001 1.90000000E-001 0.00000000E+000
 5.68409000E-001 1.90000000E-001 0.00000000E+000
 5.64899000E-001 1.90000000E-001 0.00000000E+000
 5.61389000E-001 1.90000000E-001 0.00000000E+000
 5.57879000E-001 1.90000000E-001 0.00000000E+000
 5.54369000E-001 1.90000000E-001 0.00000000E+000
 5.50859000E-001 1.90000000E-001 0.00000000E+000
 5.47348000E-001 1.90000000E-001 0.00000000E+000
 5.43838000E-001 1.90000000E-001 0.00000000E+000
 5.40328000E-001 1.90000000E-001 0.00000000E+000
 5.36818000E-001 1.90000000E-001 0.00000000E+000
 5.33308000E-001 1.90000000E-001 0.00000000E+000
 5.29798000E-001 1.90000000E-001 0.00000000E+000
 5.26288000E-001 1.90000000E-001 0.00000000E+000
 5.22778000E-001 1.90000000E-001 0.00000000E+000
 5.19268000E-001 1.90000000E-001 0.00000000E+000
 5.15758000E-001 1.90000000E-001 0.00000000E+000
 5.12247000E-001 1.90000000E-001 0.00000000E+000
 5.08737000E-001 1.90000000E-001 0.00000000E+000
 5.05227000E-001 1.90000000E-001 0.00000000E+000
 5.01717000E-001 1.90000000E-001 0.00000000E+000
 4.98207000E-001 1.90000000E-001 0.00000000E+000
 4.94697000E-001 1.90000000E-001 0.00000000E+000
 4.91187000E-001 1.90000000E-001 0.00000000E+000
 4.87677000E-001 1.90000000E-001 0.00000000E+000
 4.84167000E-001 1.90000000E-001 0.00000000E+000
 4.80657000E-001 1.90000000E-001 0.00000000E+000
 4.77146000E-001 1.90000000E-001 0.00000000E+000
 4.73636000E-001 1.90000000E-001 0.00000000E+000
 4.70126000E-001 1.90000000E-001 0.00000000E+000
 4.66616000E-001 1.90000000E-001 0.00000000E+000
 4.63106000E-001 1.90000000E-001 0.00000000E+000
 4.59596000E-001 1.90000000E-001 0.00000000E+000
 4.56086000E-001 1.90000000E-001 0.00000000E+000
 4.52576000E-001 1.90000000E-001 0.00000000E+000
 4.49066000E-001 1.90000000E-001 0.00000000E+000
 4.45556000E-001 1.90000000E-001 0.00000000E+000
 4.42045000E-001 1.90000000E-001 0.00000000E+000
 4.38535000E-001 1.90000000E-001 0.00000000E+000
 4.35025000E-001 1.90000000E-001 0.00000000E+000
 4.31515000E-001 1.90000000E-001 0.00000000E+000
 4.28005000E-001 1.90000000E-001 0.00000000E+000
 4.24495000E-001 1.90000000E-001 0.00000000E+000
 4.20985000E-001 1.90000000E-001 0.00000000E+000
 4.17475000E-001 1.90000000E-001 0.00000000E+000
 4.13965000E-001 1.90000000E-001 0.00000000E+000
 4.10455000E-001 1.90000000E-001 0.00000000E+000
 4.06944000E-001 1.90000000E-001 0.00000000E+000
 4.03434000E-001 1.90000000E-001 0.00000000E+000
 3.99924000E-001 1.90000000E-001 0.00000000E+000
 3.96414000E-001 1.90000000E-001 0.00000000E+000
 3.92904000E-001 1.90000000E-001 0.00000000E+000
 3.89394000E-001 1.90000000E-001 0.00000000E+000
 3.85884000E-001 1.90000000E-001 0.00000000E+000
 3.82374000E-001 1.90000000E-001 0.00000000E+000
 3.78864000E-001 1.90000000E-001 0.00000000E+000
 3.75353000E-001 1.90000000E-001 0.00000000E+000
 3.71843000E-001 1.90000000E-001 0.00000000E+000
 3.68333000E-001 1.90000000E-001 0.00000000E+000
 3.64823000E-001 1.90000000E-001 0.00000000E+000
 3.61313000E-001 1.90000000E-001 0.00000000E+000
 3.57803000E-001 1.90000000E-001 0.00000000E+000
 3.54293000E-001 1.90000000E-001 0.00000000E+000
 3.50783000E-001 1.90000000E-001 0.00000000E+000
 3.47273000E-001 1.90000000E-001 0.00000000E+000
 3.43763000E-001 1.90000000E-001 0.00000000E+000
 3.40252000E-001 1.90000000E-001 0.00000000E+000
 3.36742000E-001 1.90000000E-001 0.00000000E+000
 3.33232000E-001 1.90000000E-001 0.00000000E+000
 3.29722000E-001 1.90000000E-001 0.00000000E+000
 3.26212000E-001 1.90000000E-001 0.00000000E+000
 3.22702000E-001 1.90000000E-001 0.00000000E+000
 3.19192000E-001 1.90000000E-001 0.00000000E+000
 3.15682000E-001 1.90000000E-001 0.00000000E+000
 3.12172000E-001 1.90000000E-001 0.00000000E+000
 3.08661000E-001 1.90000000E-001 0.00000000E+000
 3.05151000E-001 1.90000000E-001 0.00000000E+000
 3.01641000E-001 1.90000000E-001 0.00000000E+000
 2.98131000E-001 1.90000000E-001 0.00000000E+000
 2.94621000E-001 1.90000000E-001 0.00000000E+000
 2.91111000E-001 1.90000000E-001 0.00000000E+000
 2.87601000E-001 1.90000000E-001 0.00000000E+000
 2.84091000E-001 1.90000000E-001 0.00000000E+000
 2.80581000E-001 1.90000000E-001 0.00000000E+000
 2.77071000E-001 1.90000000E-001 0.00000000E+000
 2.73560000E-001 1.90000000E-001 0.00000000E+000
 2.70050000E-001 1.90000000E-001 0.00000000E+000
 2.66540000E-001 1.90000000E-001 0.00000000E+000
 2.63030000E-001 1.90000000E-001 0.00000000E+000
 2.59520000E-001 1.90000000E-001 0.00000000E+000
 2.56010000E-001 1.90000000E-001 0.00000000E+000
 2.52500000E-001 1.90000000E-001 0.00000000E+000
 2.48990000E-001 1.90000000E-001 0.00000000E+000
 2.48990000E-001 1.91333000E-001 0.00000000E+000
 2.48990000E-001 1.92667000E-001 0.00000000E+000
 2.48990000E-001 1.94000000E-001 0.00000000E+000
 2.48990000E-001 1.95333000E-001 0.00000000E+000
 2.48990000E-001 1.96667000E-001 0.00000000E+000
 2.48990000E-001 1.98000000E-001 0.00000000E+000
 2.48990000E-001 1.99333000E-001 0.00000000E+000
 2.48990000E-001 2.00667000E-001 0.00000000E+000
 2.48990000E-001 2.02000000E-001 0.00000000E+000
 2.48990000E-001 2.03333000E-001 0.00000000E+000
 2.48990000E-001 2.04667000E-001 0.00000000E+000
 2.48990000E-001 2.06000000E-001 0.00000000E+000
 2.48990000E-001 2.07333000E-001 0.00000000E+000
 2.48990000E-001 2.08667000E-001 0.00000000E+000
 2.48990000E-001 2.10000000E-001 0.00000000E+000
 2.52500000E-001 2.10000000E-001 0.00000000E+000
 2.56010000E-001 2.10000000E-001 0.00000000E+000
 2.59520000E-001 2.10000000E-001 0.00000000E+000
 2.63030000E-001 2.10000000E-001 0.00000000E+000
 2.66540000E-001 2.10000000E-001 0.00000000E+000
 2.70050000E-001 2.10000000E-001 0.00000000E+000
 2.73560000E-001 2.10000000E-001 0.00000000E+000
 2.77071000E-001 2.10000000E-001 0.00000000E+000
 2.80581000E-001 2.10000000E-001 0.00000000E+000
 2.84091000E-001 2.10000000E-001 0.00000000E+000
 2.87601000E-001 2.10000000E-001 0.00000000E+000
 2.91111000E-001 2.10000000E-001 0.00000000E+000
 2.94621000E-001 2.10000000E-001 0.00000000E+000
 2.98131000E-001 2.10000000E-001 0.00000000E+000
 3.01641000E-001 2.10000000E-001 0.00000000E+000
 3.05151000E-001 2.10000000E-001 0.00000000E+000
 3.08661000E-001 2.10000000E-001 0.00000000E+000
 3.12172000E-001 2.10000000E-001 0.00000000E+000
 3.15682000E-001 2.10000000E-001 0.00000000E+000
 3.19192000E-001 2.10000000E-001 0.00000000E+000
 3.22702000E-001 2.10000000E-001 0.00000000E+000
 3.26212000E-001 2.10000000E-001 0.00000000E+000
 3.29722000E-001 2.10000000E-001 0.00000000E+000
 3.33232000E-001 2.10000000E-001 0.00000000E+000
 3.36742000E-001 2.10000000E-001 0.00000000E+000
 3.40252000E-001 2.10000000E-001 0.00000000E+000
 3.43763000E-001 2.10000000E-001 0.00000000E+000
 3.47273000E-001 2.10000000E-001 0.00000000E+000
 3.50783000E-001 2.10000000E-001 0.00000000E+000
 3.54293000E-001 2.10000000E-001 0.00000000E+000
 3.57803000E-001 2.10000000E-001 0.00000000E+000
 3.61313000E-001 2.10000000E-001 0.00000000E+000
 3.64823000E-001 2.10000000E-001 0.00000000E+000
 3.68333000E-001 2.10000000E-001 0.00000000E+000
 3.71843000E-001 2.10000000E-001 0.00000000E+000
 3.75353000E-001 2.10000000E-001 0.00000000E+000
 3.78864000E-001 2.10000000E-001 0.00000000E+000
 3.82374000E-001 2.10000000E-001 0.00000000E+000
 3.85884000E-001 2.10000000E-001 0.00000000E+000
 3.89394000E-001 2.10000000E-001 0.00000000E+000
 3.92904000E-001 2.10000000E-001 0.00000000E+000
 3.96414000E-001 2.10000000E-001 0.00000000E+000
 3.99924000E-001 2.10000000E-001 0.00000000E+000
 4.03434000E-001 2.10000000E-001 0.00000000E+000
 4.06944000E-001 2.10000000E-001 0.00000000E+000
 4.10455000E-001 2.10000000E-001 0.00000000E+000
 4.13965000E-001 2.10000000E-001 0.00000000E+000
 4.17475000E-001 2.10000000E-001 0.00000000E+000
 4.20985000E-001 2.10000000E-001 0.00000000E+000
 4.24495000E-001 2.10000000E-001 0.00000000E+000
 4.28005000E-001 2.10000000E-001 0.00000000E+000
 4.31515000E-001 2.10000000E-001 0.00000000E+000
 4.35025000E-001 2.10000000E-001 0.00000000E+000
 4.38535000E-001 2.10000000E-001 0.00000000E+000
 4.42045000E-001 2.10000000E-001 0.00000000E+000
 4.45556000E-001 2.10000000E-001 0.00000000E+000
 4.49066000E-001 2.10000000E-001 0.00000000E+000
 4.52576000E-001 2.10000000E-001 0.00000000E+000
 4.56086000E-001 2.10000000E-001 0.00000000E+000
 4.59596000E-001 2.10000000E-001 0.00000000E+000
 4.63106000E-001 2.10000000E-001 0.00000000E+000
 4.66616000E-001 2.10000000E-001 0.00000000E+000
 4.70126000E-001 2.10000000E-001 0.00000000E+000
 4.73636000E-001 2.10000000E-001 0.00000000E+000
 4.77146000E-001 2.10000000E-001 0.00000000E+000
 4.80657000E-001 2.10000000E-001 0.00000000E+000
 4.84167000E-001 2.10000000E-001 0.00000000E+000
 4.87677000E-001 2.10000000E-001 0.00000000E+000
 4.91187000E-001 2.10000000E-001 0.00000000E+000
 4.94697000E-001 2.10000000E-001 0.00000000E+000
[...]
POINT_DATA 3232
VECTORS DISP double
 -4.2833300E-003  3.0286500E-002  5.5018000E-005
 -4.0358400E-003  3.0308400E-002  5.5046200E-005
 -3.7902800E-003  3.0331300E-002  5.5130100E-005
 -3.5437300E-003  3.0354300E-002  5.5285000E-005
 -3.2975600E-003  3.0377200E-002  5.5514100E-005
 -3.0511000E-003  3.0400200E-002  5.5804100E-005
 -2.8047300E-003  3.0423200E-002  5.6143000E-005
 -2.5583000E-003  3.0446200E-002  5.6514600E-005
 -2.3118200E-003  3.0469300E-002  5.6902900E-005
 -2.0653600E-003  3.0492300E-002  5.7290900E-005
 -1.8188100E-003  3.0515400E-002  5.7660700E-005
 -1.5723400E-003  3.0538500E-002  5.7997000E-005
 -1.3256000E-003  3.0561600E-002  5.8282700E-005
 -1.0792400E-003  3.0584700E-002  5.8505800E-005
 -8.3202500E-004  3.0608000E-002  5.8645800E-005
 -5.8625400E-004  3.0630600E-002  5.8689900E-005
 -5.2570600E-004  2.9981800E-002  5.8756900E-005
 -4.6630800E-004  2.9331800E-002  5.8948800E-005
 -4.0631900E-004  2.8683000E-002  5.9254400E-005
 -3.4679700E-004  2.8033400E-002  5.9674000E-005
 -2.8722100E-004  2.7384300E-002  6.0205300E-005
 -2.2799000E-004  2.6735000E-002  6.0845900E-005
 -1.6892400E-004  2.6086100E-002  6.1595700E-005
 -1.1019800E-004  2.5437200E-002  6.2454600E-005
 -5.1775300E-005  2.4788700E-002  6.3425100E-005
  6.2438700E-006  2.4140500E-002  6.4509200E-005
  6.3821500E-005  2.3492800E-002  6.5710700E-005
  1.2087800E-004  2.2845700E-002  6.7032300E-005
  1.7732500E-004  2.2199300E-002  6.8478100E-005
  2.3308700E-004  2.1553700E-002  7.0050500E-005
  2.8803500E-004  2.0909200E-002  7.1752300E-005
  3.4209000E-004  2.0265800E-002  7.3585000E-005
  3.9509200E-004  1.9623900E-002  7.5549500E-005
  4.4695400E-004  1.8983700E-002  7.7645600E-005
  4.9749500E-004  1.8345600E-002  7.9871600E-005
  5.4661400E-004  1.7709600E-002  8.2225100E-005
  5.9412800E-004  1.7076500E-002  8.4701800E-005
  6.3990800E-004  1.6446300E-002  8.7296600E-005
  6.8379300E-004  1.5819600E-002  9.0002400E-005
  7.2562200E-004  1.5196800E-002  9.2811400E-005
  7.6526400E-004  1.4578400E-002  9.5714000E-005
  8.0253200E-004  1.3964900E-002  9.8699600E-005
  8.3732900E-004  1.3356800E-002  1.0175600E-004
  8.6945800E-004  1.2754800E-002  1.0487100E-004
  8.9885000E-004  1.2159200E-002  1.0802900E-004
  9.2532300E-004  1.1571000E-002  1.1121600E-004
  9.4881600E-004  1.0990400E-002  1.1441700E-004
  9.6919800E-004  1.0418400E-002  1.1761300E-004
  9.8639600E-004  9.8552900E-003  1.2078900E-004
  1.0003600E-003  9.3019600E-003  1.2392700E-004
  1.0109900E-003  8.7589600E-003  1.2700900E-004
  1.0183200E-003  8.2268800E-003  1.3001800E-004
  1.0222500E-003  7.7065100E-003  1.3293600E-004
  1.0228900E-003  7.1981700E-003  1.3574600E-004
  1.0201500E-003  6.7028800E-003  1.3843100E-004
  1.0141700E-003  6.2206800E-003  1.4097400E-004
  1.0049400E-003  5.7527000E-003  1.4336000E-004
  9.9259100E-004  5.2988800E-003  1.4557400E-004
  9.7720800E-004  4.8602200E-003  1.4760200E-004
  9.5888900E-004  4.4367500E-003  1.4943300E-004
  9.3783100E-004  4.0291200E-003  1.5105400E-004
  9.1409500E-004  3.6376400E-003  1.5245500E-004
  8.8796300E-004  3.2624500E-003  1.5362900E-004
  8.5949100E-004  2.9041900E-003  1.5456700E-004
  8.2899600E-004  2.5625000E-003  1.5526500E-004
  7.9656800E-004  2.2382300E-003  1.5571700E-004
  7.6250400E-004  1.9307300E-003  1.5592100E-004
  7.2696800E-004  1.6407900E-003  1.5587400E-004
  6.9019100E-004  1.3677400E-003  1.5557800E-004
  6.5242200E-004  1.1120500E-003  1.5503200E-004
  6.1382400E-004  8.7325700E-004  1.5423900E-004
  5.7469900E-004  6.5134100E-004  1.5320200E-004
  5.3516800E-004  4.4616300E-004  1.5192500E-004
  4.9554200E-004  2.5717700E-004  1.5041400E-004
  4.5593800E-004  8.4542300E-005  1.4867300E-004
  4.1662200E-004 -7.2694900E-005  1.4671200E-004
  3.7774500E-004 -2.1425300E-004  1.4453300E-004
  3.3948700E-004 -3.4123700E-004  1.4214900E-004
  3.0205400E-004 -4.5351400E-004  1.3956400E-004
  2.6553300E-004 -5.5205300E-004  1.3678900E-004
  2.3016600E-004 -6.3709400E-004  1.3383200E-004
  1.9597200E-004 -7.0928500E-004  1.3070100E-004
  1.6319200E-004 -7.6933100E-004  1.2740600E-004
  1.3181500E-004 -8.1751400E-004  1.2395500E-004
  1.0204500E-004 -8.5495600E-004  1.2036000E-004
  7.3873600E-005 -8.8166300E-004  1.1662600E-004
  4.7436500E-005 -8.9900300E-004  1.1276600E-004
  2.2750800E-005 -9.0690200E-004  1.0878700E-004
 -1.1976200E-007 -9.0673100E-004  1.0469900E-004
 -2.1142800E-005 -8.9855200E-004  1.0051000E-004
 -4.0300300E-005 -8.8353600E-004  9.6229900E-005
 -5.7573600E-005 -8.6200900E-004  9.1867500E-005
 -7.2955900E-005 -8.3485800E-004  8.7431400E-005
 -8.6474700E-005 -8.0267200E-004  8.2931300E-005
 -9.8096500E-005 -7.6610300E-004  7.8374900E-005
 -1.0792400E-004 -7.2587800E-004  7.3773100E-005
 -1.1587000E-004 -6.8257300E-004  6.9133400E-005
 -1.2212700E-004 -6.3683200E-004  6.4467500E-005
 -1.2654600E-004 -5.8939200E-004  5.9784200E-005
 -1.2939500E-004 -5.4056300E-004  5.5096000E-005
 -1.3048800E-004 -4.9145200E-004  5.0413800E-005
 -1.3013300E-004 -4.4185200E-004  4.5752000E-005
 -1.2814200E-004 -3.9337200E-004  4.1125100E-005
 -1.2481300E-004 -3.4518500E-004  3.6550700E-005
 -1.2001800E-004 -2.9945200E-004  3.2049000E-005
 -1.1396600E-004 -2.5470100E-004  2.7643900E-005
 -1.0667800E-004 -2.1364000E-004  2.3363500E-005
 -9.8159700E-005 -1.7414900E-004  1.9243400E-005
 -8.8730100E-005 -1.3950700E-004  1.5323300E-005
 -7.7985400E-005 -1.0684300E-004  1.1658800E-005
 -6.6839200E-005 -8.0235700E-005  8.3075200E-006
 -5.4043700E-005 -5.5615100E-005  5.3604800E-006
 -4.1845400E-005 -3.8664100E-005  2.9004900E-006
 -2.7185900E-005 -2.2527600E-005  1.0844100E-006
 -1.6072300E-005 -1.6874300E-005 -5.4139000E-009
  0.0000000E+000  0.0000000E+000  0.0000000E+000
  0.0000000E+000  0.0000000E+000  0.0000000E+000
  0.0000000E+000  0.0000000E+000  0.0000000E+000
  0.0000000E+000  0.0000000E+000  0.0000000E+000
  0.0000000E+000  0.0000000E+000  0.0000000E+000
  0.0000000E+000  0.0000000E+000  0.0000000E+000
  0.0000000E+000  0.0000000E+000  0.0000000E+000
  0.0000000E+000  0.0000000E+000  0.0000000E+000
  0.0000000E+000  0.0000000E+000  0.0000000E+000
  0.0000000E+000  0.0000000E+000  0.0000000E+000
  0.0000000E+000  0.0000000E+000  0.0000000E+000
  0.0000000E+000  0.0000000E+000  0.0000000E+000
  0.0000000E+000  0.0000000E+000  0.0000000E+000
  0.0000000E+000  0.0000000E+000  0.0000000E+000
  0.0000000E+000  0.0000000E+000  0.0000000E+000
  0.0000000E+000  0.0000000E+000  0.0000000E+000
  1.5425900E-005 -1.3836000E-005  8.5112100E-006
  2.7386500E-005 -1.9590500E-005  1.5576100E-005
  4.1987500E-005 -3.5178800E-005  2.1538300E-005
  5.4516300E-005 -5.2465600E-005  2.6510800E-005
  6.7197900E-005 -7.6897400E-005  3.0656600E-005
  7.8405300E-005 -1.0396400E-004  3.4075700E-005
  8.8978600E-005 -1.3640400E-004  3.6867600E-005
  9.8309700E-005 -1.7159100E-004  3.9099400E-005
  1.0661000E-004 -2.1078300E-004  4.0836700E-005
  1.1366800E-004 -2.5240400E-004  4.2125300E-005
  1.1946600E-004 -2.9684100E-004  4.3011700E-005
  1.2392700E-004 -3.4302600E-004  4.3528800E-005
  1.2698100E-004 -3.9096200E-004  4.3711000E-005
  1.2858500E-004 -4.3967500E-004  4.3583700E-005
  1.2866900E-004 -4.8914000E-004  4.3173300E-005
  1.2720100E-004 -5.3821200E-004  4.2501100E-005
  1.2411700E-004 -5.8702400E-004  4.1587900E-005
  1.1940400E-004 -6.3417500E-004  4.0453100E-005
  1.1298300E-004 -6.7997100E-004  3.9113800E-005
  1.0488600E-004 -7.2282800E-004  3.7588700E-005
  9.4994900E-005 -7.6310300E-004  3.5892800E-005
  8.3397900E-005 -7.9921600E-004  3.4044100E-005
  6.9939800E-005 -8.3136500E-004  3.2057400E-005
  5.4750300E-005 -8.5820100E-004  2.9949700E-005
  3.7658200E-005 -8.7958800E-004  2.7736400E-005
  1.8806500E-005 -8.9454500E-004  2.5433700E-005
 -1.9630600E-006 -9.0253900E-004  2.3057900E-005
 -2.4523900E-005 -9.0297700E-004  2.0624400E-005
 -4.8993100E-005 -8.9498600E-004  1.8150700E-005
 -7.5289200E-005 -8.7826400E-004  1.5651500E-005
 -1.0346600E-004 -8.5176400E-004  1.3145100E-005
 -1.3350100E-004 -8.1529100E-004  1.0646200E-005
 -1.6538400E-004 -7.6784300E-004  8.1728100E-006
 -1.9914000E-004 -7.0913900E-004  5.7402500E-006
 -2.3471200E-004 -6.3840500E-004  3.3654600E-006
 -2.7215500E-004 -5.5515600E-004  1.0643600E-006
 -3.1138700E-004 -4.5893100E-004 -1.1474200E-006
 -3.5246300E-004 -3.4902900E-004 -3.2538500E-006
 -3.9530700E-004 -2.2528300E-004 -5.2408400E-006
 -4.3994700E-004 -8.6861900E-005 -7.0928600E-006
 -4.8633200E-004  6.6215000E-005 -8.7974200E-006
 -5.3444500E-004  2.3475400E-004 -1.0340400E-005
 -5.8427300E-004  4.1869800E-004 -1.1710700E-005
 -6.3575000E-004  6.1866900E-004 -1.2896800E-005
 -6.8889000E-004  8.3469300E-004 -1.3889100E-005
 -7.4359300E-004  1.0671000E-003 -1.4678900E-005
 -7.9988100E-004  1.3160600E-003 -1.5259000E-005
 -8.5763900E-004  1.5815900E-003 -1.5624100E-005
 -9.1687600E-004  1.8639500E-003 -1.5769300E-005
 -9.7748100E-004  2.1629100E-003 -1.5693100E-005
 -1.0394300E-003  2.4787500E-003 -1.5393500E-005
 -1.1026400E-003  2.8111000E-003 -1.4872600E-005
 -1.1670300E-003  3.1601100E-003 -1.4132200E-005
 -1.2325400E-003  3.5254000E-003 -1.3177200E-005
 -1.2990700E-003  3.9068900E-003 -1.2013700E-005
 -1.3665700E-003  4.3042800E-003 -1.0649700E-005
 -1.4349000E-003  4.7172100E-003 -9.0948200E-006
 -1.5040300E-003  5.1454800E-003 -7.3599400E-006
 -1.5738100E-003  5.5884900E-003 -5.4582200E-006
 -1.6441900E-003  6.0460600E-003 -3.4029400E-006
 -1.7150400E-003  6.5174800E-003 -1.2101100E-006
 -1.7862900E-003  7.0025100E-003  1.1048900E-006
 -1.8578200E-003  7.5004000E-003  3.5242500E-006
 -1.9295600E-003  8.0108000E-003  6.0307200E-006
 -2.0014100E-003  8.5330000E-003  8.6056400E-006
 -2.0732700E-003  9.0664900E-003  1.1230500E-005
 -2.1450800E-003  9.6106900E-003  1.3886700E-005
 -2.2167200E-003  1.0164900E-002  1.6555300E-005
 -2.2881600E-003  1.0728700E-002  1.9218300E-005
 -2.3593000E-003  1.1301200E-002  2.1857200E-005
 -2.4300800E-003  1.1882100E-002  2.4455700E-005
 -2.5004600E-003  1.2470500E-002  2.6996500E-005
 -2.5703700E-003  1.3066000E-002  2.9465200E-005
 -2.6398000E-003  1.3668000E-002  3.1847000E-005
 -2.7086600E-003  1.4275800E-002  3.4129800E-005
 -2.7770200E-003  1.4889100E-002  3.6302200E-005
 -2.8447400E-003  1.5507100E-002  3.8354800E-005
 -2.9119500E-003  1.6129700E-002  4.0279900E-005
 -2.9785100E-003  1.6755900E-002  4.2071200E-005
 -3.0445500E-003  1.7385800E-002  4.3725400E-005
 -3.1099700E-003  1.8018400E-002  4.5239600E-005
 -3.1749000E-003  1.8654000E-002  4.6614200E-005
 -3.2392500E-003  1.9291600E-002  4.7850500E-005
 -3.3031600E-003  1.9931500E-002  4.8952200E-005
 -3.3665500E-003  2.0572800E-002  4.9924500E-005
 -3.4295800E-003  2.1215900E-002  5.0773700E-005
 -3.4921400E-003  2.1859900E-002  5.1508600E-005
 -3.5544100E-003  2.2505200E-002  5.2137500E-005
 -3.6162700E-003  2.3151200E-002  5.2671500E-005
 -3.6779400E-003  2.3798100E-002  5.3120300E-005
 -3.7392300E-003  2.4445300E-002  5.3496000E-005
 -3.8004300E-003  2.5093500E-002  5.3808400E-005
 -3.8612300E-003  2.5741400E-002  5.4069500E-005
 -3.9220800E-003  2.6390500E-002  5.4287400E-005
 -3.9824500E-003  2.7038900E-002  5.4473000E-005
 -4.0430600E-003  2.7688600E-002  5.4630100E-005
 -4.1029600E-003  2.8337000E-002  5.4767400E-005
 -4.1634800E-003  2.8987400E-002  5.4880400E-005
 -4.2225600E-003  2.9635300E-002  5.4971400E-005
 -3.9766700E-003  2.9659400E-002  5.5005600E-005
 -3.9165700E-003  2.9009600E-002  5.4920800E-005
 -3.8566100E-003  2.8360700E-002  5.4815500E-005
 -3.7963800E-003  2.7711000E-002  5.4687200E-005
 -3.7360500E-003  2.7062300E-002  5.4539000E-005
 -3.6755700E-003  2.6412900E-002  5.4364500E-005
 -3.6149400E-003  2.5764500E-002  5.4158400E-005
 -3.5541500E-003  2.5115900E-002  5.3911500E-005
 -3.4931700E-003  2.4468100E-002  5.3614600E-005
 -3.4319900E-003  2.3820400E-002  5.3257000E-005
 -3.3705900E-003  2.3173600E-002  5.2828200E-005
 -3.3089400E-003  2.2527200E-002  5.2317300E-005
 -3.2470300E-003  2.1882000E-002  5.1713800E-005
 -3.1847900E-003  2.1237500E-002  5.1007700E-005
 -3.1222700E-003  2.0594400E-002  5.0190100E-005
 -3.0593600E-003  1.9952600E-002  4.9252800E-005
 -2.9961200E-003  1.9312600E-002  4.8189400E-005
 -2.9324500E-003  1.8674400E-002  4.6994800E-005
 -2.8684200E-003  1.8038700E-002  4.5665500E-005
 -2.8039300E-003  1.7405300E-002  4.4199800E-005
 -2.7390500E-003  1.6775200E-002  4.2597800E-005
 -2.6737300E-003  1.6148300E-002  4.0861700E-005
 -2.6080000E-003  1.5525300E-002  3.8995100E-005
 -2.5418700E-003  1.4906600E-002  3.7004000E-005
 -2.4753300E-003  1.4292700E-002  3.4895800E-005
 -2.4084600E-003  1.3684100E-002  3.2679700E-005
 -2.3412500E-003  1.3081400E-002  3.0366500E-005
 -2.2737700E-003  1.2485100E-002  2.7968700E-005
 -2.2060300E-003  1.1895700E-002  2.5499900E-005
 -2.1381300E-003  1.1314100E-002  2.2974900E-005
 -2.0701000E-003  1.0740600E-002  2.0409700E-005
 -2.0020200E-003  1.0175900E-002  1.7821000E-005
 -1.9339600E-003  9.6206600E-003  1.5226400E-005
 -1.8659800E-003  9.0755000E-003  1.2643600E-005
 -1.7981900E-003  8.5409700E-003  1.0090900E-005
 -1.7306300E-003  8.0177100E-003  7.5866200E-006
 -1.6634400E-003  7.5063100E-003  5.1488300E-006
 -1.5966400E-003  7.0073000E-003  2.7954600E-006
 -1.5303800E-003  6.5213100E-003  5.4377700E-007
 -1.4646900E-003  6.0487500E-003 -1.5894000E-006
 -1.3997000E-003  5.5902500E-003 -3.5884300E-006
 -1.3354700E-003  5.1461400E-003 -5.4383200E-006
 -1.2720800E-003  4.7169800E-003 -7.1256000E-006
 -1.2096200E-003  4.3030500E-003 -8.6378400E-006
 -1.1481500E-003  3.9047800E-003 -9.9642300E-006
 -1.0877700E-003  3.5224400E-003 -1.1095400E-005
 -1.0285000E-003  3.1562900E-003 -1.2023600E-005
 -9.7044800E-004  2.8066000E-003 -1.2742800E-005
 -9.1363300E-004  2.4734500E-003 -1.3248500E-005
 -8.5814100E-004  2.1570700E-003 -1.3538400E-005
 -8.0399900E-004  1.8574100E-003 -1.3611400E-005
 -7.5124900E-004  1.5746200E-003 -1.3468400E-005
 -6.9995200E-004  1.3085700E-003 -1.3111800E-005
 -6.5010000E-004  1.0592500E-003 -1.2545700E-005
 -6.0177800E-004  8.2652200E-004 -1.1775800E-005
 -5.5494500E-004  6.1018900E-004 -1.0809000E-005
 -5.0969400E-004  4.1010700E-004 -9.6539000E-006
 -4.6597300E-004  2.2590400E-004 -8.3199300E-006
 -4.2385700E-004  5.7438200E-005 -6.8180200E-006
 -3.8331600E-004 -9.5819500E-005 -5.1597800E-006
 -3.4437800E-004 -2.3404100E-004 -3.3581400E-006
 -3.0705900E-004 -3.5784400E-004 -1.4262900E-006
 -2.7132900E-004 -4.6749000E-004  6.2139100E-007
 -2.3725400E-004 -5.6360700E-004  2.7703900E-006
 -2.0475400E-004 -6.4660200E-004  5.0054400E-006
 -1.7392600E-004 -7.1705000E-004  7.3110600E-006
 -1.4467100E-004 -7.7552600E-004  9.6714700E-006
 -1.1708300E-004 -8.2253500E-004  1.2070600E-005
 -9.1081600E-005 -8.5879200E-004  1.4492500E-005
 -6.6718900E-005 -8.8476300E-004  1.6920700E-005
 -4.3967700E-005 -9.0123100E-004  1.9339500E-005
 -2.2814900E-005 -9.0869400E-004  2.1732300E-005
 -3.2956100E-006 -9.0789800E-004  2.4083400E-005
  1.4664600E-005 -8.9946400E-004  2.6376600E-005
  3.0986500E-005 -8.8400100E-004  2.8596200E-005
  4.5776300E-005 -8.6231400E-004  3.0726500E-005
  5.8950200E-005 -8.3481500E-004  3.2751700E-005
  7.0605800E-005 -8.0251400E-004  3.4656200E-005
  8.0696800E-005 -7.6561800E-004  3.6424100E-005
  8.9272600E-005 -7.2530100E-004  3.8039900E-005
  9.6360400E-005 -6.8161500E-004  3.9487200E-005
  1.0193900E-004 -6.3581500E-004  4.0750000E-005
  1.0611500E-004 -5.8787200E-004  4.1811000E-005
  1.0881400E-004 -5.3903900E-004  4.2652800E-005
  1.1018600E-004 -4.8926100E-004  4.3256600E-005
  1.1015900E-004 -4.3974400E-004  4.3602200E-005
  1.0885600E-004 -3.9040100E-004  4.3667800E-005
  1.0629200E-004 -3.4242900E-004  4.3429200E-005
  1.0246600E-004 -2.9561400E-004  4.2859400E-005
  9.7593400E-005 -2.5127600E-004  4.1927200E-005
  9.1418800E-005 -2.0887900E-004  4.0597400E-005
  8.4509900E-005 -1.7009700E-004  3.8828000E-005
  7.6170500E-005 -1.3378600E-004  3.6570200E-005
  6.7557200E-005 -1.0228800E-004  3.3764600E-005
  5.7206900E-005 -7.3501400E-005  3.0340500E-005
  4.7321800E-005 -5.0825900E-005  2.6208300E-005
  3.5029600E-005 -3.0884500E-005  2.1263600E-005
  2.4651200E-005 -1.8388300E-005  1.5365800E-005
  1.0682600E-005 -8.5842000E-006  8.3947100E-006
 -3.7299000E-003  2.9682400E-002  5.5105300E-005
 -3.6702100E-003  2.9032900E-002  5.5041500E-005
 -3.6100400E-003  2.8383500E-002  5.4956500E-005
 -3.5498800E-003  2.7734200E-002  5.4853100E-005
 -3.4896200E-003  2.7084900E-002  5.4731100E-005
 -3.4291600E-003  2.6436000E-002  5.4587500E-005
 -3.3686800E-003  2.5787100E-002  5.4415800E-005
 -3.3079600E-003  2.5138800E-002  5.4208700E-005
 -3.2471800E-003  2.4490500E-002  5.3956800E-005
 -3.1861500E-003  2.3843000E-002  5.3650700E-005
 -3.1250100E-003  2.3195800E-002  5.3280000E-005
 -3.0636200E-003  2.2549500E-002  5.2834500E-005
 -3.0020500E-003  2.1903900E-002  5.2304300E-005
 -2.9402300E-003  2.1259400E-002  5.1680000E-005
 -2.8781700E-003  2.0615900E-002  5.0952900E-005
 -2.8158400E-003  1.9974000E-002  5.0115500E-005
 -2.7532400E-003  1.9333500E-002  4.9161500E-005
 -2.6903600E-003  1.8695200E-002  4.8085900E-005
 -2.6271900E-003  1.8058900E-002  4.6885500E-005
 -2.5637300E-003  1.7425300E-002  4.5558400E-005
 -2.5000000E-003  1.6794600E-002  4.4104700E-005
 -2.4359800E-003  1.6167300E-002  4.2526100E-005
 -2.3717400E-003  1.5543700E-002  4.0826100E-005
 -2.3072300E-003  1.4924500E-002  3.9009800E-005
 -2.2425700E-003  1.4309900E-002  3.7084300E-005
 -2.1777000E-003  1.3700700E-002  3.5057900E-005
 -2.1127500E-003  1.3097200E-002  3.2940700E-005
 -2.0476900E-003  1.2500200E-002  3.0744000E-005
 -1.9826500E-003  1.1910100E-002  2.8480400E-005
 -1.9176300E-003  1.1327600E-002  2.6163900E-005
 -1.8527300E-003  1.0753200E-002  2.3809000E-005
 -1.7880100E-003  1.0187700E-002  2.1431400E-005
 -1.7235300E-003  9.6315200E-003  1.9047200E-005
 -1.6594000E-003  9.0853900E-003  1.6673100E-005
 -1.5956500E-003  8.5499100E-003  1.4325800E-005
 -1.5324100E-003  8.0256700E-003  1.2022400E-005
 -1.4697000E-003  7.5132700E-003  9.7796800E-006
 -1.4076700E-003  7.0132900E-003  7.6142700E-006
 -1.3463400E-003  6.5262700E-003  5.5423200E-006
 -1.2858200E-003  6.0527600E-003  3.5792100E-006
 -1.2261700E-003  5.5932500E-003  1.7397600E-006
 -1.1674600E-003  5.1482300E-003  3.7569000E-008
 -1.1097800E-003  4.7181000E-003 -1.5146100E-006
 -1.0531400E-003  4.3032900E-003 -2.9054300E-006
 -9.9767500E-004  3.9041400E-003 -4.1247600E-006
 -9.4336100E-004  3.5209800E-003 -5.1639700E-006
 -8.9032000E-004  3.1540500E-003 -6.0159100E-006
 -8.3853000E-004  2.8036000E-003 -6.6749500E-006
 -7.8808100E-004  2.4697900E-003 -7.1371900E-006
 -7.3897500E-004  2.1527400E-003 -7.4001300E-006
 -6.9124800E-004  1.8525400E-003 -7.4631800E-006
 -6.4494100E-004  1.5692000E-003 -7.3270100E-006
 -6.0002900E-004  1.3027100E-003 -6.9941500E-006
 -5.5659300E-004  1.0529900E-003 -6.4684000E-006
 -5.1455900E-004  8.1990800E-004 -5.7551500E-006
 -4.7402800E-004  6.0331700E-004 -4.8610500E-006
 -4.3490800E-004  4.0297800E-004 -3.7940300E-006
 -3.9728700E-004  2.1866000E-004 -2.5632500E-006
 -3.6109400E-004  5.0028300E-005 -1.1787600E-006
 -3.2636800E-004 -1.0322100E-004  3.4814700E-007
 -2.9309400E-004 -2.4150700E-004  2.0057100E-006
 -2.6124200E-004 -3.6520700E-004  3.7810100E-006
 -2.3086100E-004 -4.7480900E-004  5.6609000E-006
 -2.0185900E-004 -5.7075800E-004  7.6313500E-006
 -1.7433400E-004 -6.5359800E-004  9.6781500E-006
 -1.4816000E-004 -7.2383500E-004  1.1786600E-005
 -1.2344500E-004 -7.8205800E-004  1.3941800E-005
 -1.0007800E-004 -8.2882100E-004  1.6128800E-005
 -7.8130700E-005 -8.6475400E-004  1.8332100E-005
 -5.7549200E-005 -8.9043800E-004  2.0536800E-005
 -3.8330100E-005 -9.0654900E-004  2.2727400E-005
 -2.0505800E-005 -9.1367100E-004  2.4888800E-005
 -3.9846700E-006 -9.1252800E-004  2.7005800E-005
  1.1120700E-005 -9.0368300E-004  2.9063400E-005
  2.4968100E-005 -8.8791700E-004  3.1046600E-005
  3.7401400E-005 -8.6574500E-004  3.2940500E-005
  4.8600300E-005 -8.3800700E-004  3.4730400E-005
  5.8418500E-005 -8.0515600E-004  3.6401300E-005